 VARIABLES  =  "X"  "temp"  "u"  "rho"  "NC12H26" "H" "O" "OH" "HO2" "H2" "H2O" "H2O2" "O2" "CH2" "CH2S" "CH3" "CH4" "HCO" "CH2O" "CH3O" "CO" "CO2" "C2H2" "C2H3" "C2H4" "C2H5" "C2H6" "CH2CHO" "aC3H5" "C3H6" "nC3H7" "C2H3CHO" "C4H7" "C4H81" "pC4H9" "C5H9" "C5H10" "PXC5H11" "C6H12" "PXC6H13" "C7H14" "PXC7H15" "C8H16" "PXC8H17" "C9H18" "PXC9H19" "C10H20" "PXC10H21" "PXC12H25" "SXC12H25" "S3XC12H25" "C12H24" "C12H25O2" "C12OOH" "O2C12H24OOH" "OC12H23OOH" "N2"
 ZONE  I=971  FORMAT=POINT  SPECFORMAT=MOLE 
0.0 298.0 19.825867200752196 0.0012254816302155365 0.007886435331230233 4.0325463016288454e-16 5.62949630796089e-17 5.463694261617895e-19 1.1513560361400305e-16 6.258727233173673e-18 2.1013668511469575e-16 -1.6479477780639586e-16 0.2084272194682287 5.141012951760319e-22 1.7577177449137939e-16 -6.935071170168503e-16 -1.7742354055594858e-18 1.0612227145246342e-22 3.374683601005542e-16 -1.0068402461597646e-26 1.894531258430762e-16 2.5677707567115935e-18 4.953892460182574e-19 1.504118527784031e-31 4.993674032094039e-16 1.8542113688486942e-29 3.409034902543967e-16 1.2809424754400396e-29 -1.3015178202875484e-16 1.2227883898316658e-16 -1.4277757933143715e-30 -4.310098935133132e-18 1.891365891172385e-16 1.0306226669231356e-16 -6.288676678366079e-31 -3.405674616043417e-17 -5.279176047360853e-18 -9.641428921986947e-17 -5.2253394724063144e-18 -7.866566349513192e-17 -4.849761295976006e-18 -1.7382968208733385e-17 -1.0205436537746542e-17 -1.9327672114936755e-19 -4.459907565063311e-18 -6.309621524779516e-18 -4.8269365926180026e-18 -9.560044169873885e-17 7.761249832588255e-17 1.6656376994234778e-23 2.3240337812521234e-23 1.9958067331275853e-18 6.461919276726741e-17 -1.730396384149441e-19 -3.2301511279950145e-20 -2.0950116603056104e-17 0.7836863452005397
0.05 298.00000000000756 19.825867200752686 0.0012254816302155061 0.007886435331230004 3.958750622192822e-20 2.1024955032833493e-18 3.1843785531712074e-18 6.710242905196224e-16 6.347209906231131e-18 4.25526419035214e-16 -1.6479458276504496e-16 0.2084272194682278 2.9963464203685686e-21 1.5388095838254383e-22 -7.077543360636471e-16 -2.079548892234658e-18 6.185144677908218e-22 3.373179753362235e-16 -5.868242796277964e-26 3.533887910512917e-16 1.447976030222909e-17 4.963472811191964e-19 8.766613189197077e-31 4.993727014460117e-16 1.080894180393805e-28 3.482560168522067e-16 7.465852576048927e-29 -1.3015177996149137e-16 1.222796280455987e-16 -8.321364613355025e-30 -4.310059075577185e-18 1.8913658897288092e-16 1.0306303185998299e-16 -3.665036143962005e-30 -3.405674637500877e-17 -5.279020895921184e-18 -9.641428879634877e-17 -5.225186417862634e-18 -8.027188367504538e-17 -4.849607070616748e-18 -1.7382967911528258e-17 -1.02051212931268e-17 -1.9327657347051137e-19 -4.459734585274582e-18 -6.3096202214230365e-18 -4.8268162924416024e-18 -9.56004416400839e-17 9.744399731674273e-23 9.707695249918858e-23 1.3544963064852218e-22 1.9958941208432125e-18 3.766142975434532e-16 -1.8189216215614351e-22 -1.8826719823297866e-19 -2.0950106635152067e-17 0.7836863452005401
0.15 298.0000000000075 19.825867200752683 0.0012254816302155064 0.007886435331229999 1.5432734779177825e-24 3.883982188515035e-20 4.227959942187423e-20 6.710701469767182e-16 6.4150777227811275e-18 4.318240124046148e-16 -1.6479160540791555e-16 0.2084272194682278 7.44140991983248e-26 6.531861355887099e-29 -6.870780939351818e-16 -2.6647422198143923e-18 1.925446441338348e-26 3.3704232359636493e-16 -4.8275486732467964e-26 3.539410228564962e-16 1.5234056683645033e-17 5.121401210958899e-19 8.767584582985186e-31 4.99460042397383e-16 -5.427640447725523e-29 3.383659239483689e-16 7.484843758466468e-29 -1.3015176602463593e-16 1.222926359398908e-16 -8.437185248445784e-30 -4.309401892818259e-18 1.891365885112161e-16 1.030756553635217e-16 -3.8011185302115814e-30 -3.4056746535214465e-17 -5.276463240842767e-18 -9.641428195475086e-17 -5.2226633305156936e-18 -8.323845946988544e-17 -4.847064684860895e-18 -1.7382962321047124e-17 -1.0199924528844713e-17 -1.9327397301880662e-19 -4.456883030374553e-18 -6.309598495039828e-18 -4.824833210706249e-18 -9.560044093339754e-17 2.096658245437746e-25 1.2952672719900134e-24 1.8079184545853802e-24 1.9959039445727934e-18 3.829664268664053e-16 1.7038323381808085e-23 -1.5443776767567055e-19 -2.0949733368238637e-17 0.7836863452005401
0.25 298.00000000000756 19.825867200752683 0.0012254816302155061 0.007886435331229999 5.567261216320036e-29 7.104219118019405e-22 -1.4820699134691555e-21 6.710910613544675e-16 7.138228994434522e-18 4.463661360132215e-16 -1.6476019901823226e-16 0.20842721946822776 1.7972945113214443e-30 -9.370363044247285e-36 -6.517899129278601e-16 -3.143705855457713e-18 1.1444777193820093e-30 3.369568656273949e-16 -4.171320533047677e-26 3.5979215232688e-16 2.3265677796329336e-17 6.804352304632686e-19 8.76742788298015e-31 5.003907865986202e-16 -1.0518435730404249e-28 3.211916471314961e-16 7.484737034165054e-29 -1.301516354264127e-16 1.2243125368023513e-16 -8.439253993438595e-30 -4.302398657571863e-18 1.8913658824538459e-16 1.0321018654966503e-16 -3.925276875128688e-30 -3.405674667944348e-17 -5.2492077772471396e-18 -9.641420935228729e-17 -5.195776237494954e-18 -8.595729380387777e-17 -4.819971942159478e-18 -1.7382902573909426e-17 -1.014454560463667e-17 -1.9324605410556862e-19 -4.426495650840264e-18 -6.309366894114106e-18 -4.803700667070928e-18 -9.56004336377591e-17 -1.0593703229003789e-26 -1.3066013919844576e-25 -1.9126291827870994e-25 1.995989483363358e-18 3.8221772919167735e-16 1.711565547250478e-23 -1.1954419885504822e-19 -2.094552740088004e-17 0.7836863452005401
0.375 298.0000000000106 19.82586720075289 0.0012254816302154931 0.007886435331229978 -2.372630274994073e-30 1.0321330312140374e-23 -2.0585570145621052e-21 6.714016805006697e-16 1.7862080319472064e-17 6.646075368643581e-16 -1.6429468978918035e-16 0.20842721946822743 -5.672441049390141e-34 -2.823188131977183e-35 -6.191816369087323e-16 -2.5663146218510294e-18 6.53251507913407e-31 3.3949421417456755e-16 -4.06173726934494e-26 4.46560534456736e-16 1.423693134751772e-16 3.176140519416851e-18 8.76499013351807e-31 5.141931120348151e-16 -8.067410388945041e-29 3.061121521054289e-16 7.482655980542344e-29 -1.3014972139277601e-16 1.2448686332011565e-16 -8.439200982912716e-30 -4.1985452777769244e-18 1.8913659108509992e-16 1.0520520773439382e-16 -4.063722671876777e-30 -3.4056746805532187e-17 -4.8450272308883395e-18 -9.641313314060433e-17 -4.7970583854873154e-18 -8.898900157864843e-17 -4.4182044434305e-18 -1.7382016318344868e-17 -9.323312700877838e-18 -1.9283174307061774e-19 -3.975870861153954e-18 -6.305932289545128e-18 -4.490319014275485e-18 -9.560032578476893e-17 -1.345520068732248e-26 -1.4642458564144426e-25 -2.1306914294281546e-25 1.997260680551258e-18 3.812808542520134e-16 1.7073765362695573e-23 -6.19846301582947e-20 -2.0882907148855788e-17 0.7836863452005399
0.5 298.00000000005264 19.825867200755724 0.0012254816302153177 0.007886435331229657 -5.640518884515011e-31 1.4080795096888664e-25 -2.046684529698909e-21 6.754622225817781e-16 1.5802843173937922e-16 3.5211361468039468e-15 -1.5821067015707585e-16 0.20842721946822343 -1.4296159529321647e-34 -6.707569495997446e-36 -6.13094066590973e-16 1.3087030788712632e-17 6.509615285408137e-31 3.7667457338761646e-16 -4.4406645552784995e-26 1.5806687499093007e-15 1.6991162379564625e-15 3.579631629047955e-17 8.733142273084486e-31 6.945967400607794e-16 -1.9215257753641093e-29 3.1301386639932656e-16 7.455467775911592e-29 -1.301247264975914e-16 1.5135475834694366e-16 -8.438039126902121e-30 -2.841127165691469e-18 1.8913663623135258e-16 1.3128119262368532e-16 -4.1854879777303654e-30 -3.4056746895092706e-17 4.378242865790151e-19 -9.639906700033567e-17 4.143928545483633e-19 -9.165543533004459e-17 8.331072771616311e-19 -1.7370432389864015e-17 1.410631648746402e-18 -1.87416159431739e-19 1.9140312517726657e-18 -6.26104013398958e-18 -3.942566177349967e-19 -9.559891643893067e-17 -1.3368296682356996e-26 -1.4528763509627106e-25 -2.1140164171099236e-25 2.0138792687476005e-18 3.8164091093414464e-16 1.708988870415302e-23 1.807441656053243e-19 -2.0064284474255066e-17 0.7836863452005384
0.75 298.0000000016604 19.825867200864337 0.0012254816302086043 0.007886435331217278 3.3085652775063115e-30 4.1287855701137485e-26 -2.3507611454521647e-21 8.306251569511957e-16 5.514005041893259e-15 1.126855127249651e-13 7.426700741546957e-17 0.2084272194680691 8.402714956763305e-34 3.943417112108171e-35 -7.071809060690226e-16 6.353065422621862e-16 5.611998476785435e-31 1.809323787666657e-15 -6.406046359709838e-26 4.491672635445003e-14 6.11848632659991e-14 1.2822645079648519e-15 7.526607419539172e-31 7.588102948572231e-15 1.1233004183323552e-28 7.220855047321674e-16 6.425484287651603e-29 -1.291696918270108e-16 1.1780192595525734e-15 -8.393388877096163e-30 4.902795264304781e-17 1.8913838694098424e-16 1.1276855991100093e-15 -4.363029735231281e-30 -3.4056746971903204e-17 2.0230388490761785e-16 -9.586157925116889e-17 1.9955213664695732e-16 -9.554325992860137e-17 2.0149398269100696e-16 -1.692779206400925e-17 4.115715180061353e-16 1.9522767621876217e-20 2.26976449378796e-16 -4.5456400721065e-18 1.5612272611444603e-16 -9.55450641783456e-17 -1.537961071599476e-26 -1.6734795541228537e-25 -2.4352230297003467e-25 2.648911697537408e-18 4.329359577653771e-16 1.9386886362505848e-23 7.927216344790179e-18 1.1215322834307284e-17 0.7836863452004731
0.8750000000000001 298.0000000170141 19.825867201901563 0.0012254816301444911 0.007886435331098984 5.07153117778712e-30 6.033888873631159e-26 -2.4860939107041527e-21 2.2099090682515105e-15 5.66790763630289e-14 1.1555279688673719e-12 2.346586230597404e-15 0.20842721946659504 1.2906378594239533e-33 6.05806646169125e-35 -7.738890682031273e-16 6.593191025134744e-15 -2.4813688733796013e-31 1.5502148412768012e-14 -1.3655414198128134e-25 4.589014465405563e-13 6.294458380735963e-13 1.3189641737885679e-14 -3.329160193490536e-31 7.344102997018619e-14 1.7224273062138327e-28 4.20347234534236e-15 -2.830346356659407e-29 -1.2004638575733717e-16 1.0985635358675652e-14 -7.968524989276318e-30 5.445277207018968e-16 1.8915512898319048e-16 1.0646230274370683e-14 -4.364933769470759e-30 -3.405674705942959e-17 2.1307087569952506e-15 -9.072701714228479e-17 2.1018936900757997e-15 -9.558493305359021e-17 2.118385849486344e-15 -1.2699296642844414e-17 4.329794567293872e-15 1.9963886606335554e-18 2.3769736421049067e-15 1.1841393039521686e-17 1.6513127106917566e-15 -9.503061976619346e-17 -1.648169969060091e-26 -1.8107707616040115e-25 -2.636920894207815e-25 8.715314297790814e-18 9.44557087774999e-16 4.2297307420321265e-23 8.108816874618583e-17 3.0999860733731106e-16 0.7836863451998506
1.0 298.00000021769006 19.825867215458302 0.0012254816293065182 0.007886435329552811 6.60981965484604e-30 8.503800912803874e-26 -1.4020908666783055e-21 2.0174714248696782e-14 7.254333668480823e-13 1.478603010543946e-11 3.2078567178038724e-14 0.20842721944732812 1.699464136715618e-33 7.984177422575841e-35 -7.893233319367924e-16 8.447599500911444e-14 9.992861496175237e-31 1.9447956009875402e-13 -9.766852733062587e-25 5.8698986497672725e-12 8.056914523398069e-12 1.6882530109239829e-13 1.3336126178188542e-30 9.341732902751507e-13 2.2465574347826713e-28 4.9271208503953116e-14 1.3393987832206384e-28 -8.000504415480299e-19 1.3917631654843529e-13 -2.4186980675869702e-30 7.020969310025706e-15 1.8937398706410648e-16 1.3505859650701926e-13 -3.43393830292733e-30 -3.405674664496241e-17 2.733597083732993e-14 -2.3615600601571998e-17 2.696649453947153e-14 -7.519765352921692e-17 2.7173166918330026e-14 4.2569353860368013e-17 5.554302280375649e-14 2.783506201137474e-17 3.0478563458143504e-14 2.2602850217583844e-16 2.1194229225095705e-14 -8.830656209976665e-17 -1.2236452458027409e-26 -1.5769939854225577e-25 -2.3219219111355744e-25 8.800637899277399e-17 7.64793556492104e-15 3.4247492783706375e-22 1.0362652847445907e-15 4.21506544805327e-15 0.7836863451917148
1.125 298.0000028406229 19.825867392651606 0.0012254816183538005 0.007886435309343496 8.77249678648698e-30 3.8982117056514865e-24 1.6509408926817554e-20 2.549263327039069e-13 9.466402279540401e-12 1.9294383627866701e-10 4.2072002417815654e-13 0.20842721919549959 2.1909623051749368e-33 1.0342926944800023e-34 1.3022960404534806e-16 1.1024553772961596e-12 2.0393658937801736e-27 2.5338132103951322e-12 7.039052914262734e-24 7.659446672063499e-11 1.0513782122133837e-10 2.2030649007190196e-12 2.733859240052055e-27 1.218439483879312e-11 2.7080183958830703e-28 6.377617588342862e-13 2.368210506128709e-25 1.5578117081374137e-15 1.8146956741335076e-12 7.54906774716546e-29 9.167145365472897e-14 1.9223487167222092e-16 1.7611933982973915e-12 9.524283499479495e-30 -3.405673966919175e-17 3.567819503476255e-13 8.535657703873612e-16 3.519598533013654e-13 2.0856564572214857e-16 3.5465228077691283e-13 7.649595696429464e-16 7.249267446024574e-13 3.6556005902735344e-16 3.977810637548842e-13 3.025566223471157e-15 2.766303858917306e-13 -4.1960623586611315e-19 6.770455355814181e-26 4.136245067273877e-25 5.662272418448516e-25 1.1243821359009363e-15 9.528786590386469e-14 4.266996554236573e-21 1.3513104322896262e-14 5.5253941980602316e-14 0.7836863450853748
1.25 298.0000371237196 19.825869708660207 0.0012254814751960974 0.00788643504519718 1.748423069873354e-28 6.866158160958893e-22 2.5746767880386163e-19 3.323201074896524e-12 1.2371543432138808e-10 2.52155944273459e-09 5.500492693849588e-12 0.2084272159039684 1.4277231018479143e-31 7.022080465159004e-33 1.3520019868412032e-14 1.4407976232357112e-11 3.7412285990582334e-25 3.3110125772476325e-11 3.579717782549102e-21 1.0010015346683674e-09 1.3740360098278562e-09 2.8791639636490673e-11 5.015392187544855e-25 1.5923067025891148e-10 3.9804881235168476e-28 8.328956717627284e-12 4.3402566426142056e-23 2.192968974583993e-14 2.371460936273303e-11 2.110607378934052e-27 1.1980975255072864e-12 2.296319343620024e-16 2.301562513562762e-11 1.7952789138624491e-28 -3.405664693394734e-17 4.662813083175101e-12 1.231878476042616e-14 4.5997929058432965e-12 3.931305470503961e-15 4.634975451579927e-12 1.0206977260202461e-14 9.474121833149767e-12 4.779802278788406e-15 5.198616708476164e-12 3.961698738408868e-14 3.615314453887642e-12 1.1483088398186832e-15 1.1523459220485837e-24 8.26620385307674e-24 1.1557748311548035e-23 1.4670354917460137e-14 1.240880910398222e-12 5.556693753186067e-20 1.764957918428638e-13 7.223275304968608e-13 0.783686343695453
1.375 298.00048522144783 19.825899980085715 0.0012254796040542459 0.007886431592671666 3.2304310760645814e-26 1.1596128288286268e-19 3.818314165281042e-18 4.3427202042968025e-11 1.6170081619860483e-09 3.295774460207829e-08 7.189564618824022e-11 0.2084271728819904 4.089042141464367e-29 1.4424326557390127e-30 1.903729611701028e-13 1.883176972729487e-10 6.425422749985155e-23 4.3275792781116067e-10 6.321861562636567e-19 1.308347021844423e-08 1.7959178162264268e-08 3.763177812710118e-10 8.613544580734591e-23 2.081199984052311e-09 3.7292511834471154e-26 1.0885598377720769e-10 7.452730096820634e-21 2.882025224929814e-13 3.0995757522656486e-10 2.0858683652403747e-25 1.5659646803153006e-11 7.184897822416801e-16 3.008218154713417e-10 2.402456867040504e-27 -3.40554332815608e-17 6.094482143658956e-11 1.6217500957094375e-13 6.012112286661611e-11 5.2599873025950175e-14 6.058096771760963e-11 1.3361893610010446e-13 1.2383053400705134e-10 6.247618437144594e-14 6.794797070168577e-11 5.17885399287799e-13 4.7253606609237474e-11 1.6162771580146312e-14 1.7125891690760477e-23 1.220235858534311e-22 1.7058933347350783e-22 1.9172308141055642e-13 1.6215340139738967e-11 7.261631678963199e-19 2.305511576101517e-12 9.440909733624217e-12 0.7836863255284687
1.5 298.0063420442903 19.826295640226896 0.0012254551479762205 0.007886386467147531 1.31136630132153e-23 1.817588067365591e-17 1.1608056610596914e-16 5.67622454967924e-10 2.1134787669825606e-08 4.307677177691593e-07 9.396880479517625e-10 0.20842661057197553 3.7388309554896585e-26 5.7759081364067675e-28 2.507766427066331e-12 2.461366890040685e-09 1.0985485964303571e-20 5.656271224487825e-09 9.774459107442615e-17 1.7100492455069837e-07 2.347319124295304e-07 4.918587677799887e-09 1.4722362163749496e-20 2.7201909803712028e-08 4.611025552965069e-23 1.4227732017812365e-09 1.2643956038861277e-18 3.7688301883269285e-12 4.051238059062513e-09 4.2453702861416545e-23 2.0467639142084342e-10 7.110430659932693e-15 3.931831236385363e-09 3.1528506588333625e-26 -3.403956896142526e-17 7.965673882311624e-10 2.1208411163627835e-12 7.858013971227349e-10 6.887199778093834e-13 7.918117044421946e-10 1.7466506299582947e-12 1.6185028087514239e-09 8.16585036369044e-13 8.881006660236128e-10 6.768995604179425e-12 6.176190470937544e-10 2.1240625904226368e-13 5.100431301195409e-22 3.3352957714092347e-21 4.6289868150886965e-21 2.505854804385987e-12 2.1194759266748185e-10 9.497747408484751e-18 3.0116036575838896e-11 1.2339004512516472e-10 0.7836860880805689
1.5625 298.03577956891075 19.828284306930115 0.001225332241636404 0.007886159667714178 1.7206325200825704e-21 6.271103241127637e-16 2.6585073990274753e-15 3.2037561749609857e-09 1.1923056390279765e-07 2.4301486639854545e-06 5.300420119056749e-09 0.20842378441811835 6.552488990655527e-24 7.48939241512986e-26 1.4198678514800678e-11 1.3885630194767385e-08 3.508058298077762e-19 3.190942862977119e-08 3.469500150207802e-15 9.64713415809175e-07 1.324225193440298e-06 2.774790027753049e-08 4.693289230311711e-19 1.534578462596056e-07 8.976801903264436e-21 8.02648127878066e-09 4.0599763906879156e-17 2.1285641193687128e-11 2.2854795267361433e-08 2.9479575874084117e-21 1.1546688984873989e-09 3.9353663960950363e-14 2.218117573853289e-08 1.7996704904551355e-25 -3.395983487559939e-17 4.493784414135836e-09 1.1965085575849375e-11 4.433048757998209e-09 3.8858542705276e-12 4.466955523729438e-09 9.853746757522479e-12 9.130680971540907e-09 4.606713590092632e-12 5.0101635904891384e-09 3.818688855860416e-11 3.484258697280876e-09 1.19872013419952e-12 1.1565745609537162e-20 7.16570897763133e-20 9.897648671306749e-20 1.4136611623786071e-11 1.1956952508525462e-09 5.375824492201678e-17 1.6981073345395738e-10 6.960689023153401e-10 0.7836848946743966
1.625 298.2428113969514 19.84227055036806 0.001224468540328635 0.007884565104723205 4.740734291277144e-19 2.664345119367346e-14 1.0775169977891488e-13 2.1770384046968856e-08 8.089149943015566e-07 1.6487245058125078e-05 3.594326694556329e-08 0.20840391449390633 1.8700654023243322e-21 2.0727524694798493e-23 9.698847735189178e-11 9.420640242520894e-08 1.6411409999724752e-17 2.1648684087849787e-07 1.4792455384685177e-13 6.545059230692288e-06 8.984152886287906e-06 1.8825451817182906e-07 2.1717407186559635e-17 1.0411286203279584e-06 2.4361449418730693e-18 5.445533223720864e-08 1.867927756245765e-15 1.4493594075743554e-10 1.5505729479320823e-07 5.906001458209586e-19 7.833805017665587e-09 2.684925219196012e-13 1.5048729314019946e-07 1.3871702548464027e-24 -3.339924598683392e-17 3.048790074098963e-08 8.117826163982315e-11 3.0075842109602464e-08 2.63642833430142e-11 3.03058812040878e-08 6.685350829546543e-11 6.194674009467965e-08 3.125406554511972e-11 3.399125461496341e-08 2.590774546389301e-10 2.3638813869970795e-08 8.13322125469449e-12 4.673803972590454e-19 2.8465295199221376e-18 3.924854486767618e-18 9.590926443058336e-11 8.111079215047611e-09 3.731945836085536e-16 1.151663370805978e-09 4.722318196550145e-09 0.7836765041627022
1.65625 298.81419946853526 19.88087231993538 0.0012220910464403219 0.00788016788607452 1.806008697184941e-17 3.0150575656355246e-13 1.2191862244140754e-12 7.353485127282221e-08 2.71082058471006e-06 5.5251722635051756e-05 1.2016516710408488e-07 0.20834912003285774 7.136171732202705e-20 8.082500187230484e-22 3.345687548869309e-10 3.1570193439054633e-07 1.9485879686440084e-16 7.254643877442231e-07 1.811233998693228e-12 2.193367211657864e-05 3.010752271394854e-05 6.308749370704864e-07 2.503389926910067e-16 3.4890104834094193e-06 9.210269261796423e-17 1.8248959370821096e-07 2.1572196789096906e-14 4.944724422861307e-10 5.196225663652269e-07 2.1142912858236263e-17 2.625249988122098e-08 9.427512245235408e-13 5.043100579932117e-07 1.4027043589118265e-23 -3.185334214620205e-17 1.0217047465303092e-07 2.72060914522613e-10 1.0078959158322054e-07 8.835624588076777e-11 1.0156049423284377e-07 2.2405584708441684e-10 2.075947403647997e-07 1.0473803597716461e-10 1.1391084769781369e-07 8.682154546429042e-10 7.92179446489665e-08 2.725611194206479e-11 5.3200203213433784e-18 3.2283466706048534e-17 4.4501596404443784e-17 3.2140929662973036e-10 2.7160375546901543e-08 1.3317948270636586e-15 3.8584800024002685e-09 1.582503447415532e-08 0.783653366089124
1.671875 299.74403878359567 19.943694087708334 0.0012182415128695991 0.007873020295776535 1.829111793920862e-16 1.3953991026059234e-12 5.7277285174307415e-12 1.592674792601725e-07 5.802356354772707e-06 0.00011826308482041781 2.562770926389129e-07 0.2082600512947009 7.161369679993241e-19 8.467660719453074e-21 7.472357529290699e-10 6.757396690731134e-07 9.715561665531877e-16 1.5527408689213376e-06 9.658052668973304e-12 4.6947749517333855e-05 6.444342949392447e-05 1.35035159640605e-06 1.1926239923585923e-15 7.468027315345132e-06 9.164187449979563e-16 3.9060826171490753e-07 1.0310378062533685e-13 1.0871201171661659e-09 1.1122141940594415e-06 2.0722039713402003e-16 5.619198467773081e-08 2.1634741407641018e-12 1.07944649621583e-06 2.0542730933371957e-22 -2.934048712867588e-17 2.1869005501570404e-07 5.823874649638047e-10 2.157343538144185e-07 1.8913609355493525e-10 2.173844268282012e-07 4.796351440367862e-10 4.443446636115593e-07 2.241857861433747e-10 2.4381965175407333e-07 1.858365471831925e-09 1.6956147783613873e-07 5.834022559756777e-11 2.5254090426124142e-17 1.5282781187778003e-16 2.1064312582651088e-16 6.879581860076838e-10 5.806403351220642e-08 3.1566698371219945e-15 8.257695992226942e-09 3.387220688753649e-08 0.7836157552623935
1.6796875000000002 300.7312981180144 20.010401095085417 0.0012141803626109031 0.007865437135061201 7.278302857304501e-16 3.4464278954081757e-12 1.4449152091892605e-11 2.5205474549062694e-07 9.082319863370312e-06 0.0001851148943731031 3.9977380269210005e-07 0.20816555307812748 2.808681857341063e-18 3.472527778433095e-20 1.2166929002459456e-09 1.057719353177027e-06 2.5845740441569134e-15 2.4303609010878653e-06 2.788538691412558e-11 7.34864025996981e-05 0.0001008720941542533 2.113679929878203e-06 3.030819636962177e-15 1.168956348445691e-05 3.594743795559584e-15 6.114113867202939e-07 2.6381963961746627e-13 1.7447616292149304e-09 1.7409158243179621e-06 8.02038974014453e-16 8.795629348753342e-08 3.611974544071696e-12 1.689636944363897e-06 1.2401745994607112e-21 -2.6674475599977587e-17 3.423114522154032e-07 9.116827050664113e-10 3.376849484131378e-07 2.960723755394479e-10 3.4026777683771833e-07 7.508461784326645e-10 6.955243898597577e-07 3.50913836600024e-10 3.816463399007561e-07 2.9088646554924533e-09 2.6541140937169025e-07 9.131887053927667e-11 6.440053337745894e-17 3.8870304403275775e-16 5.356887763504442e-16 1.076848046493212e-09 9.07793218381228e-08 5.5067317670755e-15 1.2924631191817165e-08 5.301921607201921e-08 0.7835758520359944
1.6875 302.45399042718884 20.126813073762797 0.0012071576343746437 0.007852226966562653 3.1739628703882678e-15 8.748928284576168e-12 3.8212514397396585e-11 4.1668120949591666e-07 1.4796199410756017e-05 0.0003015743637461304 6.482615005935628e-07 0.20800093064987954 1.1881407855275521e-17 1.5717497371935802e-19 2.0881938720318394e-09 1.7231455993877069e-06 7.69625424937862e-15 3.959083977956171e-06 8.471244347240707e-11 0.00011971818138900278 0.00016433286055184547 3.443440317055581e-06 8.444996439488946e-15 1.904371522288068e-05 1.4874833180605556e-14 9.960622663502534e-07 7.361664892512801e-13 2.938732291634087e-09 2.8361354839645104e-06 3.320050302642151e-15 1.4329155997846723e-07 6.402088164997981e-12 2.752622309415035e-06 8.919677998223185e-21 -2.2030132890529632e-17 5.576668275250545e-07 1.4854212186413733e-09 5.50129692313614e-07 4.823838540061908e-10 5.543374327402155e-07 1.223398542032469e-09 1.1330934955368353e-06 5.71681196648062e-10 6.217481250710475e-07 4.738892814364871e-09 4.323873410986693e-07 1.487694577784959e-10 1.735081506848989e-16 1.0425970182348564e-15 1.4365472882099477e-15 1.7543158568134974e-09 1.4765027544943377e-07 1.0813664313802513e-14 2.1054218502928616e-08 8.637422667945136e-08 0.7835063383267258
1.69140625 303.7938913678083 20.217371815143665 0.0012017504688432413 0.007841953481343084 7.0982572971158685e-15 1.4444514879584227e-11 6.507452481107748e-11 5.476750720933272e-07 1.9239908165128653e-05 0.0003921452771648772 8.400276203872896e-07 0.2078729018375623 2.5971449333921973e-17 3.609699668000071e-19 2.822184209320995e-09 2.2406466149034484e-06 1.4137689466201925e-14 5.147828096877278e-06 1.6141476628158912e-10 0.0001556727962563885 0.00021368657022065798 4.47760051047894e-06 1.4803104917573003e-14 2.4763070810806386e-05 3.230578257677418e-14 1.2952063865147563e-06 1.2980712907864626e-12 3.916965666016622e-09 3.687878529167994e-06 7.160607080704359e-15 1.8632614359164853e-07 8.860135570139817e-12 3.5793102009327077e-06 2.653395742936297e-20 -1.841820635573942e-17 7.251496308717606e-07 1.931706100166645e-09 7.153488850686301e-07 6.273011228131101e-10 7.208203265648113e-07 1.5909902862296857e-09 1.473392874501755e-06 7.433729457344586e-10 8.084763179936015e-07 6.162113530770564e-09 5.622452426999626e-07 1.9344897076880118e-10 2.99768494408897e-16 1.7952763932161915e-15 2.473261761453471e-15 2.2811854531553345e-09 1.9175906870244863e-07 1.626130429107259e-14 2.7376287509566046e-08 1.1231445651984403e-07 0.7834522771557546
1.6953125 305.62646763524526 20.34124677397294 0.001194431999552676 0.007827917613242419 1.6316023437346893e-14 2.4001757282827563e-11 1.1222162173395294e-10 7.29962662188166e-07 2.5311062341539366e-05 0.0005158863685484076 1.1003588029768491e-06 0.20769798290725552 5.806194508307225e-17 8.556771173519869e-19 3.890644096904678e-09 2.947670568367687e-06 2.7004346167239028e-14 6.771751493816607e-06 3.120294169868004e-10 0.00020479523399805893 0.00028111537456390937 5.890507012085486e-06 2.67670623885316e-14 3.257705952779319e-05 7.096577542453409e-14 1.7039071791028514e-06 2.353649421364194e-12 5.3106649409904566e-09 4.8515443296542654e-06 1.5715402765050662e-14 2.451216934812953e-07 1.2562619206535134e-11 4.708760409416345e-06 8.265822631857581e-20 -1.3483458542024275e-17 9.539706393804595e-07 2.541531960564494e-09 9.410772676559275e-07 8.253167503413649e-10 9.482752228488752e-07 2.093302489163396e-09 1.9383220823473335e-06 9.779443917494092e-10 1.063591067488543e-06 8.10656860154605e-09 7.396617619649078e-07 2.5449165649732745e-10 5.273529084276866e-16 3.1445789144378582e-15 4.331454437716412e-15 3.0010135325554057e-09 2.518861347122499e-07 2.6008017580660303e-14 3.6013380944072974e-08 1.477548253876552e-07 0.7833784167791502
1.697265625 306.7939499318915 20.420177066859377 0.0011898151508717614 0.007818969347110669 2.5227798822212463e-14 3.118242053658374e-11 1.4921121682719043e-10 8.483164624224979e-07 2.9181634215903177e-05 0.000594775525213768 1.2652520496527744e-06 0.20758646512713694 8.824351883646309e-17 1.3474772471004879e-18 4.6163907080996296e-09 3.3984198816695935e-06 3.806732446290419e-14 7.806933223939197e-06 4.4364461045409966e-10 0.0002361124645222474 0.00032410357940129784 6.791283882561666e-06 3.6549694920877634e-14 3.755874911399671e-05 1.0715667781174556e-13 1.964467709658666e-06 3.2276080163272697e-12 6.2373616417049585e-09 5.593411051797825e-06 2.3637359452549136e-14 2.82606035779955e-07 1.5163008325087956e-11 5.42882394517707e-06 1.5055992496648326e-19 -1.0337383333436805e-17 1.0998519876857035e-06 2.930378070012096e-09 1.0849869594131905e-06 9.515742074484282e-10 1.0932856271163404e-06 2.4136047163224534e-09 2.234730616455519e-06 1.127491860264416e-09 1.2262355898182491e-06 9.346226256614287e-09 8.527709612031834e-07 2.9340844511012635e-10 7.100857572843889e-16 4.222731021209593e-15 5.815993624541704e-15 3.4599289276419885e-09 2.901312249431323e-07 3.397429068330755e-14 4.1519623975964596e-08 1.7034923311900946e-07 0.7833313281781497
1.6992187499999998 308.17342795123955 20.513451522583214 0.0011844050734655042 0.0078084000882431455 3.9365804371196913e-14 4.0605794939847405e-11 1.9928313890645483e-10 9.899938881363207e-07 3.3753400004430214e-05 0.0006879561816753233 1.4590678955079445e-06 0.20745474398389693 1.3512807025864677e-16 2.1450331590396072e-18 5.514130431233145e-09 3.930824308228134e-06 5.4314290686822475e-14 9.029532637740288e-06 6.340755451649681e-10 0.0002731031047229635 0.0003748795374103269 7.855245614922542e-06 5.039532060127775e-14 4.344292311462107e-05 1.6252623124531526e-13 2.2722310601398325e-06 4.467123110386177e-12 7.36626771761444e-09 6.469664974292028e-06 3.5752587630173204e-14 3.268811896760731e-07 1.845614591518174e-11 6.279334199486809e-06 2.7843429687812977e-19 -6.6213605854787776e-18 1.2721612425399055e-06 3.389720972349992e-09 1.2549673718563194e-06 1.1007181637132692e-09 1.2645661574639234e-06 2.7919861348605814e-09 2.584836604896874e-06 1.3041314051670333e-09 1.4183448400668612e-06 1.0810460594492415e-08 9.863710551420209e-07 3.39375368017011e-10 9.626720144886982e-16 5.7069734648876685e-15 7.859515557963435e-15 4.001981537108783e-09 3.352268887909398e-07 4.547305925012632e-14 4.802320291031518e-08 1.9703679960086805e-07 0.7832757089549383