VARIABLES = "X" "temp" "u" "rho" "H2" "H" "AR" "N2" "HE" "O" "OH" "HCO" "HO2" "H2O" "CO" "O2" "H2O2" "CO2"
ZONE I=2403, F=POINT
0 100 4.25818 0.251988 0.295775 1.89055e-14 5.23612e-16 0.556338 5.22932e-15 1.30733e-15 1.22911e-15 7.10762e-16 1.03019e-15 1.1615e-15 7.60134e-16 0.147887 6.14977e-16 4.75284e-16
0.00426959 100 4.25818 0.251988 0.295775 4.00856e-22 5.23612e-16 0.556338 5.22932e-15 1.30732e-15 1.20412e-15 2.10027e-23 2.21254e-14 1.18651e-15 1.46762e-15 0.147887 6.17784e-16 4.75284e-16
0.00853919 100 4.25818 0.251988 0.295775 4.71052e-25 5.23612e-16 0.556338 5.22932e-15 1.3073e-15 1.17964e-15 6.20747e-31 2.2144e-14 1.21101e-15 1.46762e-15 0.147887 6.20595e-16 4.75284e-16
0.0128088 100 4.25818 0.251988 0.295775 4.61466e-25 5.23612e-16 0.556338 5.22932e-15 1.30729e-15 1.15566e-15 1.26621e-34 2.21622e-14 1.23501e-15 1.46762e-15 0.147887 6.23412e-16 4.75284e-16
0.0170784 100 4.25818 0.251988 0.295775 4.52084e-25 5.23612e-16 0.556338 5.22932e-15 1.30728e-15 1.13216e-15 1.24029e-34 2.21799e-14 1.25852e-15 1.46762e-15 0.147887 6.26232e-16 4.75284e-16
0.0213483 100 4.25818 0.251988 0.295775 4.42892e-25 5.23612e-16 0.556338 5.22932e-15 1.30726e-15 1.10914e-15 1.21507e-34 2.21971e-14 1.28156e-15 1.46762e-15 0.147887 6.29057e-16 4.75284e-16
0.0256192 100 4.25818 0.251988 0.295775 4.33885e-25 5.23612e-16 0.556338 5.22932e-15 1.30725e-15 1.08658e-15 1.19036e-34 2.22138e-14 1.30413e-15 1.46762e-15 0.147887 6.31887e-16 4.75284e-16
0.0298918 100 4.25818 0.251988 0.295775 4.25057e-25 5.23612e-16 0.556338 5.22932e-15 1.30724e-15 1.06448e-15 1.16614e-34 2.22301e-14 1.32625e-15 1.46762e-15 0.147887 6.34723e-16 4.75284e-16
0.0341669 100 4.25818 0.251988 0.295775 4.16405e-25 5.23612e-16 0.556338 5.22932e-15 1.30722e-15 1.04281e-15 1.14241e-34 2.22459e-14 1.34794e-15 1.46762e-15 0.147887 6.37564e-16 4.75284e-16
0.0384448 100 4.25818 0.251988 0.295775 4.07923e-25 5.23612e-16 0.556338 5.22932e-15 1.30721e-15 1.02157e-15 1.11914e-34 2.22613e-14 1.3692e-15 1.46762e-15 0.147887 6.4041e-16 4.75284e-16
0.0427254 100 4.25818 0.251988 0.295775 3.99609e-25 5.23612e-16 0.556338 5.22932e-15 1.30719e-15 1.00075e-15 1.09633e-34 2.22762e-14 1.39003e-15 1.46762e-15 0.147887 6.43263e-16 4.75284e-16
0.0470084 100 4.25818 0.251988 0.295775 3.9146e-25 5.23612e-16 0.556338 5.22932e-15 1.30718e-15 9.80339e-16 1.07397e-34 2.22908e-14 1.41046e-15 1.46762e-15 0.147887 6.46121e-16 4.75284e-16
0.0512927 100 4.25818 0.251988 0.295775 3.83476e-25 5.23612e-16 0.556338 5.22932e-15 1.30717e-15 9.60342e-16 1.05206e-34 2.23049e-14 1.43047e-15 1.46762e-15 0.147887 6.48983e-16 4.75284e-16
0.0555774 100 4.25818 0.251988 0.295775 3.75653e-25 5.23612e-16 0.556338 5.22932e-15 1.30715e-15 9.40751e-16 1.0306e-34 2.23186e-14 1.45008e-15 1.46762e-15 0.147887 6.51849e-16 4.75284e-16
0.0598624 100 4.25818 0.251988 0.295775 3.67989e-25 5.23612e-16 0.556338 5.22932e-15 1.30714e-15 9.2156e-16 1.00958e-34 2.23319e-14 1.46929e-15 1.46762e-15 0.147887 6.54718e-16 4.75284e-16
0.0641474 100 4.25818 0.251988 0.295775 3.60482e-25 5.23612e-16 0.556338 5.22932e-15 1.30712e-15 9.0276e-16 9.88982e-35 2.23448e-14 1.4881e-15 1.46762e-15 0.147887 6.57591e-16 4.75284e-16
0.0684324 100 4.25818 0.251988 0.295775 3.53129e-25 5.23612e-16 0.556338 5.22932e-15 1.30711e-15 8.84344e-16 9.68808e-35 2.23573e-14 1.50654e-15 1.46762e-15 0.147887 6.60468e-16 4.75284e-16
0.0727173 100 4.25818 0.251988 0.295775 3.45925e-25 5.23612e-16 0.556338 5.22932e-15 1.3071e-15 8.66304e-16 9.49044e-35 2.23695e-14 1.5246e-15 1.46762e-15 0.147887 6.63347e-16 4.75284e-16
0.0770023 100 4.25818 0.251988 0.295775 3.38869e-25 5.23612e-16 0.556338 5.22932e-15 1.30708e-15 8.48632e-16 9.29685e-35 2.23813e-14 1.54228e-15 1.46762e-15 0.147887 6.66229e-16 4.75284e-16
0.0812873 100 4.25818 0.251988 0.295775 3.31956e-25 5.23612e-16 0.556338 5.22932e-15 1.30707e-15 8.31321e-16 9.10721e-35 2.23927e-14 1.55961e-15 1.46762e-15 0.147887 6.69114e-16 4.75284e-16
0.0855722 100 4.25818 0.251988 0.295775 3.25185e-25 5.23612e-16 0.556338 5.22932e-15 1.30705e-15 8.14364e-16 8.92143e-35 2.24037e-14 1.57659e-15 1.46762e-15 0.147887 6.72002e-16 4.75284e-16
0.0898572 100 4.25818 0.251988 0.295775 3.18552e-25 5.23612e-16 0.556338 5.22932e-15 1.30704e-15 7.97753e-16 8.73946e-35 2.24144e-14 1.59321e-15 1.46762e-15 0.147887 6.74892e-16 4.75284e-16
0.0941422 100 4.25818 0.251988 0.295775 3.12054e-25 5.23612e-16 0.556338 5.22932e-15 1.30703e-15 7.81481e-16 8.5612e-35 2.24248e-14 1.6095e-15 1.46762e-15 0.147887 6.77786e-16 4.75284e-16
0.0984271 100 4.25818 0.251988 0.295775 3.05689e-25 5.23612e-16 0.556338 5.22932e-15 1.30701e-15 7.65541e-16 8.38657e-35 2.24348e-14 1.62546e-15 1.46762e-15 0.147887 6.80682e-16 4.75284e-16
0.102712 100 4.25818 0.251988 0.295775 2.99454e-25 5.23612e-16 0.556338 5.22932e-15 1.307e-15 7.49926e-16 8.21551e-35 2.24445e-14 1.64109e-15 1.46762e-15 0.147887 6.83581e-16 4.75284e-16
0.106997 100 4.25818 0.251988 0.295775 2.93346e-25 5.23612e-16 0.556338 5.22932e-15 1.30698e-15 7.3463e-16 8.04794e-35 2.24539e-14 1.6564e-15 1.46762e-15 0.147887 6.86481e-16 4.75284e-16
0.111282 100 4.25818 0.251988 0.295775 2.87363e-25 5.23612e-16 0.556338 5.22932e-15 1.30697e-15 7.19647e-16 7.8838e-35 2.2463e-14 1.6714e-15 1.46762e-15 0.147887 6.89385e-16 4.75284e-16
0.115567 100 4.25818 0.251988 0.295775 2.81502e-25 5.23612e-16 0.556338 5.22932e-15 1.30695e-15 7.04969e-16 7.72301e-35 2.24717e-14 1.6861e-15 1.46762e-15 0.147887 6.9229e-16 4.75284e-16
0.119852 100 4.25818 0.251988 0.295775 2.75761e-25 5.23612e-16 0.556338 5.22932e-15 1.30694e-15 6.90591e-16 7.5655e-35 2.24802e-14 1.70049e-15 1.46762e-15 0.147887 6.95198e-16 4.75284e-16
0.124137 100 4.25818 0.251988 0.295775 2.70137e-25 5.23612e-16 0.556338 5.22932e-15 1.30693e-15 6.76507e-16 7.4112e-35 2.24883e-14 1.71459e-15 1.46762e-15 0.147887 6.98108e-16 4.75284e-16
0.128422 100 4.25818 0.251988 0.295775 2.64628e-25 5.23612e-16 0.556338 5.22932e-15 1.30691e-15 6.6271e-16 7.26005e-35 2.24962e-14 1.72841e-15 1.46762e-15 0.147887 7.01019e-16 4.75284e-16
0.132707 100 4.25818 0.251988 0.295775 2.59231e-25 5.23612e-16 0.556338 5.22932e-15 1.30689e-15 6.49195e-16 7.112e-35 2.25038e-14 1.74194e-15 1.46762e-15 0.147887 7.03934e-16 4.75284e-16
0.136992 100 4.25818 0.251988 0.295775 2.53944e-25 5.23612e-16 0.556338 5.22932e-15 1.30688e-15 6.35956e-16 6.96696e-35 2.25111e-14 1.75519e-15 1.46762e-15 0.147887 7.06849e-16 4.75284e-16
0.141277 100 4.25818 0.251988 0.295775 2.48766e-25 5.23612e-16 0.556338 5.22932e-15 1.30687e-15 6.22987e-16 6.82488e-35 2.25181e-14 1.76818e-15 1.46762e-15 0.147887 7.09767e-16 4.75284e-16
0.145562 100 4.25818 0.251988 0.295775 2.43693e-25 5.23612e-16 0.556338 5.22932e-15 1.30685e-15 6.10283e-16 6.68571e-35 2.25249e-14 1.7809e-15 1.46762e-15 0.147887 7.12686e-16 4.75284e-16
0.149847 100 4.25818 0.251988 0.295775 2.38724e-25 5.23612e-16 0.556338 5.22932e-15 1.30684e-15 5.97838e-16 6.54938e-35 2.25314e-14 1.79336e-15 1.46762e-15 0.147887 7.15607e-16 4.75284e-16
0.154132 100 4.25818 0.251988 0.295775 2.33856e-25 5.23612e-16 0.556338 5.22932e-15 1.30682e-15 5.85647e-16 6.41582e-35 2.25377e-14 1.80557e-15 1.46762e-15 0.147887 7.18529e-16 4.75284e-16
0.158417 100 4.25818 0.251988 0.295775 2.29087e-25 5.23612e-16 0.556338 5.22932e-15 1.30681e-15 5.73705e-16 6.285e-35 2.25437e-14 1.81753e-15 1.46762e-15 0.147887 7.21453e-16 4.75284e-16
0.162702 100 4.25818 0.251988 0.295775 2.24416e-25 5.23612e-16 0.556338 5.22932e-15 1.30679e-15 5.62007e-16 6.15684e-35 2.25494e-14 1.82924e-15 1.46762e-15 0.147887 7.24379e-16 4.75284e-16
0.166987 100 4.25818 0.251988 0.295775 2.1984e-25 5.23612e-16 0.556338 5.22932e-15 1.30678e-15 5.50548e-16 6.03131e-35 2.2555e-14 1.84072e-15 1.46762e-15 0.147887 7.27306e-16 4.75284e-16
0.171272 100 4.25818 0.251988 0.295775 2.15358e-25 5.23612e-16 0.556338 5.22932e-15 1.30676e-15 5.39323e-16 5.90833e-35 2.25602e-14 1.85196e-15 1.46762e-15 0.147887 7.30234e-16 4.75284e-16
0.175557 100 4.25818 0.251988 0.295775 2.10967e-25 5.23612e-16 0.556338 5.22932e-15 1.30675e-15 5.28327e-16 5.78787e-35 2.25653e-14 1.86297e-15 1.46762e-15 0.147887 7.33164e-16 4.75284e-16
0.179842 100 4.25818 0.251988 0.295775 2.06666e-25 5.23612e-16 0.556338 5.22932e-15 1.30673e-15 5.17555e-16 5.66987e-35 2.25701e-14 1.87376e-15 1.46762e-15 0.147887 7.36095e-16 4.75284e-16
0.184126 100 4.25818 0.251988 0.295775 2.02452e-25 5.23612e-16 0.556338 5.22932e-15 1.30672e-15 5.07003e-16 5.55427e-35 2.25747e-14 1.88433e-15 1.46762e-15 0.147887 7.39027e-16 4.75284e-16
0.188412 100 4.25818 0.251988 0.295775 1.98325e-25 5.23612e-16 0.556338 5.22932e-15 1.3067e-15 4.96667e-16 5.44104e-35 2.25791e-14 1.89468e-15 1.46762e-15 0.147887 7.4196e-16 4.75284e-16
0.192696 100 4.25818 0.251988 0.295775 1.94282e-25 5.23612e-16 0.556338 5.22932e-15 1.30669e-15 4.86542e-16 5.33011e-35 2.25833e-14 1.90482e-15 1.46762e-15 0.147887 7.44894e-16 4.75284e-16
0.196981 100 4.25818 0.251988 0.295775 1.90321e-25 5.23612e-16 0.556338 5.22932e-15 1.30667e-15 4.76623e-16 5.22145e-35 2.25873e-14 1.91476e-15 1.46762e-15 0.147887 7.4783e-16 4.75284e-16
0.201266 100 4.25818 0.251988 0.295775 1.86441e-25 5.23612e-16 0.556338 5.22932e-15 1.30666e-15 4.66907e-16 5.11501e-35 2.2591e-14 1.92449e-15 1.46762e-15 0.147887 7.50766e-16 4.75284e-16
0.205551 100 4.25818 0.251988 0.295775 1.82641e-25 5.23612e-16 0.556338 5.22932e-15 1.30664e-15 4.5739e-16 5.01075e-35 2.25946e-14 1.93402e-15 1.46762e-15 0.147887 7.53704e-16 4.75284e-16
0.209836 100 4.25818 0.251988 0.295775 1.78918e-25 5.23612e-16 0.556338 5.22932e-15 1.30663e-15 4.48066e-16 4.90861e-35 2.2598e-14 1.94336e-15 1.46762e-15 0.147887 7.56642e-16 4.75284e-16
0.214121 100 4.25818 0.251988 0.295775 1.75271e-25 5.23612e-16 0.556338 5.22932e-15 1.30661e-15 4.38933e-16 4.80855e-35 2.26012e-14 1.95251e-15 1.46762e-15 0.147887 7.59581e-16 4.75284e-16
0.218406 100 4.25818 0.251988 0.295775 1.71698e-25 5.23612e-16 0.556338 5.22932e-15 1.3066e-15 4.29987e-16 4.71055e-35 2.26042e-14 1.96147e-15 1.46762e-15 0.147887 7.6252e-16 4.75284e-16
0.222691 100 4.25818 0.251988 0.295775 1.68199e-25 5.23612e-16 0.556338 5.22932e-15 1.30658e-15 4.21223e-16 4.61453e-35 2.2607e-14 1.97025e-15 1.46762e-15 0.147887 7.65461e-16 4.75284e-16
0.226976 100 4.25818 0.251988 0.295775 1.64771e-25 5.23612e-16 0.556338 5.22932e-15 1.30657e-15 4.12637e-16 4.52048e-35 2.26096e-14 1.97885e-15 1.46762e-15 0.147887 7.68402e-16 4.75284e-16
0.231261 100 4.25818 0.251988 0.295775 1.61413e-25 5.23612e-16 0.556338 5.22932e-15 1.30655e-15 4.04228e-16 4.42835e-35 2.26121e-14 1.98728e-15 1.46762e-15 0.147887 7.71344e-16 4.75284e-16
0.235546 100 4.25818 0.251988 0.295775 1.58123e-25 5.23612e-16 0.556338 5.22932e-15 1.30654e-15 3.9599e-16 4.33811e-35 2.26144e-14 1.99553e-15 1.46762e-15 0.147887 7.74286e-16 4.75284e-16
0.239831 100 4.25818 0.251988 0.295775 1.54901e-25 5.23612e-16 0.556338 5.22932e-15 1.30652e-15 3.8792e-16 4.2497e-35 2.26165e-14 2.00362e-15 1.46762e-15 0.147887 7.77229e-16 4.75284e-16
0.244116 100 4.25818 0.251988 0.295775 1.51744e-25 5.23612e-16 0.556338 5.22932e-15 1.30651e-15 3.80015e-16 4.1631e-35 2.26185e-14 2.01154e-15 1.46762e-15 0.147887 7.80172e-16 4.75284e-16
0.248401 100 4.25818 0.251988 0.295775 1.48652e-25 5.23612e-16 0.556338 5.22932e-15 1.30649e-15 3.72271e-16 4.07826e-35 2.26203e-14 2.0193e-15 1.46762e-15 0.147887 7.83117e-16 4.75284e-16
0.252686 100 4.25818 0.251988 0.295775 1.45623e-25 5.23612e-16 0.556338 5.22932e-15 1.30648e-15 3.64685e-16 3.99516e-35 2.26219e-14 2.0269e-15 1.46762e-15 0.147887 7.86061e-16 4.75284e-16
0.256971 100 4.25818 0.251988 0.295775 1.42656e-25 5.23612e-16 0.556338 5.22932e-15 1.30646e-15 3.57254e-16 3.91376e-35 2.26234e-14 2.03435e-15 1.46762e-15 0.147887 7.89006e-16 4.75284e-16
0.261256 100 4.25818 0.251988 0.295775 1.39749e-25 5.23612e-16 0.556338 5.22932e-15 1.30645e-15 3.49975e-16 3.83401e-35 2.26247e-14 2.04164e-15 1.46762e-15 0.147887 7.91951e-16 4.75284e-16
0.265541 100 4.25818 0.251988 0.295775 1.36902e-25 5.23612e-16 0.556338 5.22932e-15 1.30643e-15 3.42845e-16 3.7559e-35 2.26259e-14 2.04879e-15 1.46762e-15 0.147887 7.94896e-16 4.75284e-16
0.269826 100 4.25818 0.251988 0.295775 1.34113e-25 5.23612e-16 0.556338 5.22932e-15 1.30642e-15 3.3586e-16 3.67938e-35 2.26269e-14 2.05579e-15 1.46762e-15 0.147887 7.97842e-16 4.75284e-16
0.274111 100 4.25818 0.251988 0.295775 1.31381e-25 5.23612e-16 0.556338 5.22932e-15 1.3064e-15 3.29018e-16 3.60442e-35 2.26278e-14 2.06265e-15 1.46762e-15 0.147887 8.00788e-16 4.75284e-16
0.278396 100 4.25818 0.251988 0.295775 1.28704e-25 5.23612e-16 0.556338 5.22932e-15 1.30639e-15 3.22315e-16 3.53099e-35 2.26286e-14 2.06937e-15 1.46762e-15 0.147887 8.03734e-16 4.75284e-16
0.282681 100 4.25818 0.251988 0.295775 1.26082e-25 5.23612e-16 0.556338 5.22932e-15 1.30637e-15 3.15749e-16 3.45906e-35 2.26292e-14 2.07595e-15 1.46762e-15 0.147887 8.0668e-16 4.75284e-16
0.286966 100 4.25818 0.251988 0.295775 1.23514e-25 5.23612e-16 0.556338 5.22932e-15 1.30636e-15 3.09318e-16 3.3886e-35 2.26297e-14 2.0824e-15 1.46762e-15 0.147887 8.09626e-16 4.75284e-16
0.291251 100 4.25818 0.251988 0.295775 1.20998e-25 5.23612e-16 0.556338 5.22932e-15 1.30634e-15 3.03017e-16 3.31958e-35 2.26301e-14 2.08871e-15 1.46762e-15 0.147887 8.12573e-16 4.75284e-16
0.295536 100 4.25818 0.251988 0.295775 1.18534e-25 5.23612e-16 0.556338 5.22932e-15 1.30633e-15 2.96845e-16 3.25197e-35 2.26303e-14 2.0949e-15 1.46762e-15 0.147887 8.15519e-16 4.75284e-16
0.299821 100 4.25818 0.251988 0.295775 1.1612e-25 5.23612e-16 0.556338 5.22932e-15 1.30631e-15 2.90799e-16 3.18574e-35 2.26304e-14 2.10096e-15 1.46762e-15 0.147887 8.18466e-16 4.75284e-16
0.304106 100 4.25818 0.251988 0.295775 1.13755e-25 5.23612e-16 0.556338 5.22932e-15 1.3063e-15 2.84877e-16 3.12085e-35 2.26304e-14 2.1069e-15 1.46762e-15 0.147887 8.21412e-16 4.75284e-16
0.308391 100 4.25818 0.251988 0.295775 1.11438e-25 5.23612e-16 0.556338 5.22932e-15 1.30628e-15 2.79075e-16 3.0573e-35 2.26303e-14 2.11271e-15 1.46762e-15 0.147887 8.24359e-16 4.75284e-16
0.312676 100 4.25818 0.251988 0.295775 1.09169e-25 5.23612e-16 0.556338 5.22932e-15 1.30627e-15 2.73392e-16 2.99504e-35 2.263e-14 2.11841e-15 1.46762e-15 0.147887 8.27305e-16 4.75284e-16
0.31696 100 4.25818 0.251988 0.295775 1.06946e-25 5.23612e-16 0.556338 5.22932e-15 1.30625e-15 2.67825e-16 2.93405e-35 2.26296e-14 2.124e-15 1.46762e-15 0.147887 8.30252e-16 4.75284e-16
0.321246 100 4.25818 0.251988 0.295775 1.04768e-25 5.23612e-16 0.556338 5.22932e-15 1.30624e-15 2.62372e-16 2.87431e-35 2.26292e-14 2.12946e-15 1.46762e-15 0.147887 8.33198e-16 4.75284e-16
0.325531 100 4.25818 0.251988 0.295775 1.02635e-25 5.23612e-16 0.556338 5.22932e-15 1.30622e-15 2.5703e-16 2.81579e-35 2.26286e-14 2.13482e-15 1.46762e-15 0.147887 8.36144e-16 4.75284e-16
0.329815 100 4.25818 0.251988 0.295775 1.00545e-25 5.23612e-16 0.556338 5.22932e-15 1.30621e-15 2.51797e-16 2.75846e-35 2.26279e-14 2.14007e-15 1.46762e-15 0.147887 8.3909e-16 4.75284e-16
0.3341 100 4.25818 0.251988 0.295775 9.84984e-26 5.23612e-16 0.556338 5.22932e-15 1.30619e-15 2.46671e-16 2.7023e-35 2.26271e-14 2.14521e-15 1.46762e-15 0.147887 8.42036e-16 4.75284e-16
0.338385 100 4.25818 0.251988 0.295775 9.64932e-26 5.23612e-16 0.556338 5.22932e-15 1.30618e-15 2.41649e-16 2.64729e-35 2.26262e-14 2.15025e-15 1.46762e-15 0.147887 8.44981e-16 4.75284e-16
0.34267 100 4.25818 0.251988 0.295775 9.4529e-26 5.23612e-16 0.556338 5.22932e-15 1.30616e-15 2.3673e-16 2.5934e-35 2.26251e-14 2.15518e-15 1.46762e-15 0.147887 8.47926e-16 4.75284e-16
0.346955 100 4.25818 0.251988 0.295775 9.26049e-26 5.23612e-16 0.556338 5.22932e-15 1.30615e-15 2.31911e-16 2.54061e-35 2.2624e-14 2.16002e-15 1.46762e-15 0.147887 8.50871e-16 4.75284e-16
0.35124 100 4.25818 0.251988 0.295775 9.072e-26 5.23612e-16 0.556338 5.22932e-15 1.30613e-15 2.27191e-16 2.4889e-35 2.26228e-14 2.16475e-15 1.46762e-15 0.147887 8.53816e-16 4.75284e-16
0.355525 100 4.25818 0.251988 0.295775 8.88737e-26 5.23612e-16 0.556338 5.22932e-15 1.30612e-15 2.22567e-16 2.43825e-35 2.26215e-14 2.16939e-15 1.46762e-15 0.147887 8.5676e-16 4.75284e-16
0.35981 100 4.25818 0.251988 0.295775 8.7065e-26 5.23612e-16 0.556338 5.22932e-15 1.3061e-15 2.18038e-16 2.38863e-35 2.26202e-14 2.17394e-15 1.46762e-15 0.147887 8.59704e-16 4.75284e-16
0.364095 100 4.25818 0.251988 0.295775 8.52933e-26 5.23612e-16 0.556338 5.22932e-15 1.30609e-15 2.13601e-16 2.34002e-35 2.26187e-14 2.17839e-15 1.46762e-15 0.147887 8.62647e-16 4.75284e-16
0.36838 100 4.25818 0.251988 0.295775 8.35577e-26 5.23612e-16 0.556338 5.22932e-15 1.30607e-15 2.09255e-16 2.2924e-35 2.26171e-14 2.18275e-15 1.46762e-15 0.147887 8.6559e-16 4.75284e-16
0.372665 100 4.25818 0.251988 0.295775 8.18576e-26 5.23612e-16 0.556338 5.22932e-15 1.30606e-15 2.04997e-16 2.24576e-35 2.26154e-14 2.18702e-15 1.46762e-15 0.147887 8.68533e-16 4.75284e-16
0.37695 100 4.25818 0.251988 0.295775 8.01922e-26 5.23612e-16 0.556338 5.22932e-15 1.30604e-15 2.00826e-16 2.20007e-35 2.26137e-14 2.19121e-15 1.46762e-15 0.147887 8.71475e-16 4.75284e-16
0.381235 100 4.25818 0.251988 0.295775 7.85607e-26 5.23612e-16 0.556338 5.22932e-15 1.30603e-15 1.9674e-16 2.15531e-35 2.26119e-14 2.19531e-15 1.46762e-15 0.147887 8.74416e-16 4.75284e-16
0.38552 100 4.25818 0.251988 0.295775 7.69626e-26 5.23612e-16 0.556338 5.22932e-15 1.30601e-15 1.92738e-16 2.11147e-35 2.261e-14 2.19933e-15 1.46762e-15 0.147887 8.77358e-16 4.75284e-16
0.389805 100 4.25818 0.251988 0.295775 7.53972e-26 5.23612e-16 0.556338 5.22932e-15 1.306e-15 1.88818e-16 2.06852e-35 2.2608e-14 2.20326e-15 1.46762e-15 0.147887 8.80298e-16 4.75284e-16
0.394089 100 4.25818 0.251988 0.295775 7.38637e-26 5.23612e-16 0.556338 5.22932e-15 1.30598e-15 1.84978e-16 2.02645e-35 2.26059e-14 2.20712e-15 1.46762e-15 0.147887 8.83238e-16 4.75284e-16
0.398374 100 4.25818 0.251988 0.295775 7.23616e-26 5.23612e-16 0.556338 5.22932e-15 1.30597e-15 1.81216e-16 1.98524e-35 2.26037e-14 2.21089e-15 1.46762e-15 0.147887 8.86177e-16 4.75284e-16
0.402658 100 4.25818 0.251988 0.295775 7.08904e-26 5.23612e-16 0.556338 5.22932e-15 1.30595e-15 1.77532e-16 1.94488e-35 2.26015e-14 2.21459e-15 1.46762e-15 0.147887 8.89116e-16 4.75284e-16
0.406941 100 4.25818 0.251988 0.295775 6.94494e-26 5.23612e-16 0.556338 5.22932e-15 1.30594e-15 1.73923e-16 1.90534e-35 2.25992e-14 2.21822e-15 1.46762e-15 0.147887 8.92053e-16 4.75284e-16
0.411222 100 4.25818 0.251988 0.295775 6.80385e-26 5.23612e-16 0.556338 5.22932e-15 1.30592e-15 1.7039e-16 1.86664e-35 2.25969e-14 2.22177e-15 1.46762e-15 0.147887 8.94988e-16 4.75284e-16
0.415499 100 4.25818 0.251988 0.295775 6.66577e-26 5.23612e-16 0.556338 5.22932e-15 1.30591e-15 1.66932e-16 1.82875e-35 2.25944e-14 2.22524e-15 1.46762e-15 0.147887 8.9792e-16 4.75284e-16
0.419768 100 4.25818 0.251988 0.295775 6.53075e-26 5.23612e-16 0.556338 5.22932e-15 1.30589e-15 1.6355e-16 1.79171e-35 2.25919e-14 2.22863e-15 1.46762e-15 0.147887 9.00845e-16 4.75284e-16
0.42402 100 4.25818 0.251988 0.295775 6.39902e-26 5.23612e-16 0.556338 5.22932e-15 1.30587e-15 1.60251e-16 1.75557e-35 2.25894e-14 2.23195e-15 1.46762e-15 0.147887 9.03758e-16 4.75284e-16
0.428233 100 4.25818 0.251988 0.295775 6.27106e-26 5.23612e-16 0.556338 5.22932e-15 1.30586e-15 1.57047e-16 1.72046e-35 2.25868e-14 2.23517e-15 1.46762e-15 0.147887 9.06645e-16 4.75284e-16
0.432364 100 4.25818 0.251988 0.295775 6.14809e-26 5.23612e-16 0.556338 5.22932e-15 1.30585e-15 1.53967e-16 1.68673e-35 2.25842e-14 2.23826e-15 1.46762e-15 0.147887 9.09474e-16 4.75284e-16
0.436309 100 4.25818 0.251988 0.295775 6.03289e-26 5.23612e-16 0.556338 5.22932e-15 1.30583e-15 1.51082e-16 1.65512e-35 2.25817e-14 2.24116e-15 1.46762e-15 0.147887 9.12175e-16 4.75284e-16
0.439846 100 4.25818 0.251988 0.295775 5.93131e-26 5.23612e-16 0.556338 5.22932e-15 1.30582e-15 1.48538e-16 1.62726e-35 2.25793e-14 2.24372e-15 1.46762e-15 0.147887 9.14596e-16 4.75284e-16
0.442677 100 4.25818 0.251988 0.295775 5.85112e-26 5.23612e-16 0.556338 5.22932e-15 1.30581e-15 1.4653e-16 1.60525e-35 2.25775e-14 2.24574e-15 1.46762e-15 0.147887 9.16534e-16 4.75284e-16
0.444667 100 4.25818 0.251988 0.295775 5.7953e-26 5.23612e-16 0.556338 5.22932e-15 1.3058e-15 1.45132e-16 1.58994e-35 2.25761e-14 2.24714e-15 1.46762e-15 0.147887 9.17895e-16 4.75284e-16
0.445968 100 4.25818 0.251988 0.295775 5.75903e-26 5.23612e-16 0.556338 5.22932e-15 1.3058e-15 1.44224e-16 1.57999e-35 2.25752e-14 2.24805e-15 1.46762e-15 0.147887 9.18786e-16 4.75284e-16
0.446844 100 4.25818 0.251988 0.295775 5.7347e-26 5.23612e-16 0.556338 5.22932e-15 1.30579e-15 1.43615e-16 1.57332e-35 2.25746e-14 2.24867e-15 1.46762e-15 0.147887 9.19385e-16 4.75284e-16
0.447483 100 4.25818 0.251988 0.295775 5.71703e-26 5.23612e-16 0.556338 5.22932e-15 1.30579e-15 1.43172e-16 1.56847e-35 2.25742e-14 2.24911e-15 1.46762e-15 0.147887 9.19822e-16 4.75284e-16
0.44798 100 4.25818 0.251988 0.295775 5.70332e-26 5.23612e-16 0.556338 5.22932e-15 1.30579e-15 1.42829e-16 1.5647e-35 2.25739e-14 2.24946e-15 1.46762e-15 0.147887 9.20162e-16 4.75284e-16
0.448386 100 4.25818 0.251988 0.295775 5.69212e-26 5.23612e-16 0.556338 5.22932e-15 1.30579e-15 1.42548e-16 1.56163e-35 2.25736e-14 2.24974e-15 1.46762e-15 0.147887 9.2044e-16 4.75284e-16
0.448741 100 4.25818 0.251988 0.295775 5.68236e-26 5.23612e-16 0.556338 5.22932e-15 1.30579e-15 1.42304e-16 1.55895e-35 2.25734e-14 2.24998e-15 1.46762e-15 0.147887 9.20683e-16 4.75284e-16
0.449062 100 4.25818 0.251988 0.295775 5.67355e-26 5.23612e-16 0.556338 5.22932e-15 1.30579e-15 1.42083e-16 1.55654e-35 2.25731e-14 2.2502e-15 1.46762e-15 0.147887 9.20902e-16 4.75284e-16
0.449342 100 4.25818 0.251988 0.295775 5.66586e-26 5.23612e-16 0.556338 5.22932e-15 1.30579e-15 1.41891e-16 1.55443e-35 2.25729e-14 2.2504e-15 1.46762e-15 0.147887 9.21094e-16 4.75284e-16
0.449593 100 4.25818 0.251988 0.295775 5.65899e-26 5.23612e-16 0.556338 5.22932e-15 1.30578e-15 1.41719e-16 1.55254e-35 2.25728e-14 2.25057e-15 1.46762e-15 0.147887 9.21266e-16 4.75284e-16
0.449838 100 4.25818 0.251988 0.295775 5.65228e-26 5.23612e-16 0.556338 5.22932e-15 1.30578e-15 1.41551e-16 1.5507e-35 2.25726e-14 2.25074e-15 1.46762e-15 0.147887 9.21434e-16 4.75284e-16
0.450078 100 4.25818 0.251988 0.295775 5.64574e-26 5.23612e-16 0.556338 5.22932e-15 1.30578e-15 1.41387e-16 1.54891e-35 2.25724e-14 2.2509e-15 1.46762e-15 0.147887 9.21598e-16 4.75284e-16
0.450296 100 4.25818 0.251988 0.295775 5.63978e-26 5.23612e-16 0.556338 5.22932e-15 1.30578e-15 1.41238e-16 1.54727e-35 2.25723e-14 2.25106e-15 1.46762e-15 0.147887 9.21747e-16 4.75284e-16
0.450491 100 4.25818 0.251988 0.295775 5.63447e-26 5.23612e-16 0.556338 5.22932e-15 1.30578e-15 1.41105e-16 1.54582e-35 2.25721e-14 2.25119e-15 1.46762e-15 0.147887 9.2188e-16 4.75284e-16
0.450676 100 4.25818 0.251988 0.295775 5.62942e-26 5.23612e-16 0.556338 5.22932e-15 1.30578e-15 1.40978e-16 1.54443e-35 2.2572e-14 2.25132e-15 1.46762e-15 0.147887 9.22007e-16 4.75284e-16
0.450862 100 4.25818 0.251988 0.295775 5.62437e-26 5.23612e-16 0.556338 5.22932e-15 1.30578e-15 1.40852e-16 1.54304e-35 2.25719e-14 2.25144e-15 1.46762e-15 0.147887 9.22134e-16 4.75284e-16
0.451047 100 4.25818 0.251988 0.295775 5.61932e-26 5.23612e-16 0.556338 5.22932e-15 1.30578e-15 1.40725e-16 1.54166e-35 2.25718e-14 2.25157e-15 1.46762e-15 0.147887 9.22261e-16 4.75284e-16
0.451228 100 4.25818 0.251988 0.295775 5.61442e-26 5.23612e-16 0.556338 5.22932e-15 1.30578e-15 1.40603e-16 1.54032e-35 2.25716e-14 2.25169e-15 1.46762e-15 0.147887 9.22384e-16 4.75284e-16
0.451393 100 4.25818 0.251988 0.295775 5.60994e-26 5.23612e-16 0.556338 5.22932e-15 1.30578e-15 1.4049e-16 1.53909e-35 2.25715e-14 2.25181e-15 1.46762e-15 0.147887 9.22497e-16 4.75284e-16
0.451544 100 4.25818 0.251988 0.295775 5.60584e-26 5.23612e-16 0.556338 5.22932e-15 1.30578e-15 1.40388e-16 1.53796e-35 2.25714e-14 2.25191e-15 1.46762e-15 0.147887 9.22601e-16 4.75284e-16
0.45169 100 4.25818 0.251988 0.295775 5.60187e-26 5.23612e-16 0.556338 5.22932e-15 1.30578e-15 1.40288e-16 1.53687e-35 2.25713e-14 2.25201e-15 1.46762e-15 0.147887 9.22701e-16 4.75284e-16
0.451837 100 4.25818 0.251988 0.295775 5.5979e-26 5.23612e-16 0.556338 5.22932e-15 1.30578e-15 1.40189e-16 1.53578e-35 2.25712e-14 2.25211e-15 1.46762e-15 0.147887 9.22801e-16 4.75284e-16
0.451983 100 4.25818 0.251988 0.295775 5.59394e-26 5.23612e-16 0.556338 5.22932e-15 1.30578e-15 1.4009e-16 1.53469e-35 2.25711e-14 2.25221e-15 1.46762e-15 0.147887 9.22901e-16 4.75284e-16
0.45213 100 4.25818 0.251988 0.295775 5.58997e-26 5.23612e-16 0.556338 5.22932e-15 1.30578e-15 1.3999e-16 1.53361e-35 2.2571e-14 2.25231e-15 1.46762e-15 0.147887 9.23001e-16 4.75284e-16
0.45227 100 4.25818 0.251988 0.295775 5.58619e-26 5.23612e-16 0.556338 5.22932e-15 1.30578e-15 1.39896e-16 1.53257e-35 2.25709e-14 2.2524e-15 1.46762e-15 0.147887 9.23097e-16 4.75284e-16
0.452397 100 4.25818 0.251988 0.295775 5.58277e-26 5.23612e-16 0.556338 5.22932e-15 1.30578e-15 1.3981e-16 1.53163e-35 2.25708e-14 2.25249e-15 1.46762e-15 0.147887 9.23184e-16 4.75284e-16
0.452516 100 4.25818 0.251988 0.295775 5.57953e-26 5.23612e-16 0.556338 5.22932e-15 1.30578e-15 1.39729e-16 1.53074e-35 2.25707e-14 2.25257e-15 1.46762e-15 0.147887 9.23265e-16 4.75284e-16
0.452636 100 4.25818 0.251988 0.295775 5.57631e-26 5.23612e-16 0.556338 5.22932e-15 1.30577e-15 1.39648e-16 1.52986e-35 2.25707e-14 2.25265e-15 1.46762e-15 0.147887 9.23347e-16 4.75284e-16
0.452755 100 4.25818 0.251988 0.295775 5.57309e-26 5.23612e-16 0.556338 5.22932e-15 1.30577e-15 1.39567e-16 1.52898e-35 2.25706e-14 2.25273e-15 1.46762e-15 0.147887 9.23429e-16 4.75284e-16
0.452875 100 4.25818 0.251988 0.295775 5.56987e-26 5.23612e-16 0.556338 5.22932e-15 1.30577e-15 1.39487e-16 1.52809e-35 2.25705e-14 2.25281e-15 1.46762e-15 0.147887 9.23511e-16 4.75284e-16
0.452994 100 4.25818 0.251988 0.295775 5.56666e-26 5.23612e-16 0.556338 5.22932e-15 1.30577e-15 1.39407e-16 1.52721e-35 2.25704e-14 2.2529e-15 1.46762e-15 0.147887 9.23592e-16 4.75284e-16
0.453107 100 4.25818 0.251988 0.295775 5.5636e-26 5.23612e-16 0.556338 5.22932e-15 1.30577e-15 1.3933e-16 1.52637e-35 2.25703e-14 2.25297e-15 1.46762e-15 0.147887 9.2367e-16 4.75284e-16
0.453212 100 4.25818 0.251988 0.295775 5.56078e-26 5.23612e-16 0.556338 5.22932e-15 1.30577e-15 1.39259e-16 1.5256e-35 2.25703e-14 2.25304e-15 1.46762e-15 0.147887 9.23741e-16 4.75284e-16
0.453313 100 4.25818 0.251988 0.295775 5.55807e-26 5.23612e-16 0.556338 5.22932e-15 1.30577e-15 1.39191e-16 1.52485e-35 2.25702e-14 2.25311e-15 1.46762e-15 0.147887 9.2381e-16 4.75284e-16
0.453414 100 4.25818 0.251988 0.295775 5.55536e-26 5.23612e-16 0.556338 5.22932e-15 1.30577e-15 1.39123e-16 1.52411e-35 2.25701e-14 2.25318e-15 1.46762e-15 0.147887 9.2388e-16 4.75284e-16
0.453515 100 4.25818 0.251988 0.295775 5.55265e-26 5.23612e-16 0.556338 5.22932e-15 1.30577e-15 1.39056e-16 1.52337e-35 2.257e-14 2.25325e-15 1.46762e-15 0.147887 9.23949e-16 4.75284e-16
0.453615 100 4.25818 0.251988 0.295775 5.54994e-26 5.23612e-16 0.556338 5.22932e-15 1.30577e-15 1.38988e-16 1.52263e-35 2.257e-14 2.25332e-15 1.46762e-15 0.147887 9.24017e-16 4.75284e-16
0.453716 100 4.25818 0.251988 0.295775 5.54724e-26 5.23612e-16 0.556338 5.22932e-15 1.30577e-15 1.3892e-16 1.52188e-35 2.25699e-14 2.25338e-15 1.46762e-15 0.147887 9.24086e-16 4.75284e-16
0.453814 100 4.25818 0.251988 0.295775 5.54461e-26 5.23612e-16 0.556338 5.22932e-15 1.30577e-15 1.38854e-16 1.52116e-35 2.25698e-14 2.25345e-15 1.46762e-15 0.147887 9.24153e-16 4.75284e-16
0.453905 100 4.25818 0.251988 0.295775 5.54216e-26 5.23612e-16 0.556338 5.22932e-15 1.30577e-15 1.38793e-16 1.52049e-35 2.25698e-14 2.25351e-15 1.46762e-15 0.147887 9.24216e-16 4.75284e-16
0.453993 100 4.25818 0.251988 0.295775 5.53981e-26 5.23612e-16 0.556338 5.22932e-15 1.30577e-15 1.38734e-16 1.51985e-35 2.25697e-14 2.25357e-15 1.46762e-15 0.147887 9.24276e-16 4.75284e-16
0.45408 100 4.25818 0.251988 0.295775 5.53747e-26 5.23612e-16 0.556338 5.22932e-15 1.30577e-15 1.38675e-16 1.5192e-35 2.25696e-14 2.25363e-15 1.46762e-15 0.147887 9.24335e-16 4.75284e-16
0.454168 100 4.25818 0.251988 0.295775 5.53513e-26 5.23612e-16 0.556338 5.22932e-15 1.30577e-15 1.38617e-16 1.51856e-35 2.25696e-14 2.25369e-15 1.46762e-15 0.147887 9.24395e-16 4.75284e-16
0.454255 100 4.25818 0.251988 0.295775 5.53278e-26 5.23612e-16 0.556338 5.22932e-15 1.30577e-15 1.38558e-16 1.51792e-35 2.25695e-14 2.25375e-15 1.46762e-15 0.147887 9.24455e-16 4.75284e-16
0.454343 100 4.25818 0.251988 0.295775 5.53044e-26 5.23612e-16 0.556338 5.22932e-15 1.30577e-15 1.38499e-16 1.51728e-35 2.25695e-14 2.25381e-15 1.46762e-15 0.147887 9.24515e-16 4.75284e-16
0.45443 100 4.25818 0.251988 0.295775 5.52812e-26 5.23612e-16 0.556338 5.22932e-15 1.30577e-15 1.38441e-16 1.51664e-35 2.25694e-14 2.25387e-15 1.46762e-15 0.147887 9.24574e-16 4.75284e-16
0.454514 100 4.25818 0.251988 0.295775 5.52587e-26 5.23612e-16 0.556338 5.22932e-15 1.30577e-15 1.38385e-16 1.51602e-35 2.25693e-14 2.25392e-15 1.46762e-15 0.147887 9.24632e-16 4.75284e-16
0.454594 100 4.25818 0.251988 0.295775 5.52372e-26 5.23612e-16 0.556338 5.22932e-15 1.30577e-15 1.38331e-16 1.51543e-35 2.25693e-14 2.25398e-15 1.46762e-15 0.147887 9.24687e-16 4.75284e-16
0.454673 100 4.25818 0.251988 0.295775 5.52161e-26 5.23612e-16 0.556338 5.22932e-15 1.30577e-15 1.38278e-16 1.51485e-35 2.25692e-14 2.25403e-15 1.46762e-15 0.147887 9.24741e-16 4.75284e-16
0.454752 100 4.25818 0.251988 0.295775 5.5195e-26 5.23612e-16 0.556338 5.22932e-15 1.30577e-15 1.38226e-16 1.51427e-35 2.25692e-14 2.25408e-15 1.46762e-15 0.147887 9.24795e-16 4.75284e-16
0.454831 100 4.25818 0.251988 0.295775 5.51739e-26 5.23612e-16 0.556338 5.22932e-15 1.30577e-15 1.38173e-16 1.5137e-35 2.25691e-14 2.25414e-15 1.46762e-15 0.147887 9.24849e-16 4.75284e-16
0.45491 100 4.25818 0.251988 0.295775 5.51528e-26 5.23612e-16 0.556338 5.22932e-15 1.30577e-15 1.3812e-16 1.51312e-35 2.25691e-14 2.25419e-15 1.46762e-15 0.147887 9.24903e-16 4.75284e-16
0.454989 100 4.25818 0.251988 0.295775 5.51318e-26 5.23612e-16 0.556338 5.22932e-15 1.30577e-15 1.38067e-16 1.51254e-35 2.2569e-14 2.25424e-15 1.46762e-15 0.147887 9.24957e-16 4.75284e-16