VARIABLES = x Temp x_velocity density X(H2) X(H) X(O) X(O2) X(OH) X(H2O) X(HO2) X(H2O2) X(C) X(CH) X(CH2) X(CH2(S)) X(CH3) X(CH4) X(CO) X(CO2) X(HCO) X(CH2O) X(CH2OH) X(CH3O) X(CH3OH) X(C2H) X(C2H2) X(C2H3) X(C2H4) X(C2H5) X(C2H6) X(HCCO) X(CH2CO) X(HCCOH) X(N) X(NH) X(NH2) X(NH3) X(NNH) X(NO) X(NO2) X(N2O) X(HNO) X(CN) X(HCN) X(H2CN) X(HCNN) X(HCNO) X(HOCN) X(HNCO) X(NCO) X(N2) X(AR) X(C3H7) X(C3H8) X(CH2CHO) X(CH3CHO) pressure 
ZONE I=1024
 0.488281250000E-03 298.000057094 18.7926425873 0.114396049816E-02 0.161178026604E-07 0.329438879898E-29 0.126266015425E-17 0.195621863825 0.698853855968E-21 0.918898760445E-12 0.243942644581E-15 0.336409933421E-15 0.506560152892E-38 -0.196426250730E-54 0.396254775182E-36 0.130540923621E-37 0.962354841631E-17 0.684675558850E-01 0.380359878984E-13 0.399340375508E-15 0.821788601993E-35 0.313794957228E-16 0.135565560700E-37 0.111438473434E-25 0.231014939895E-17 0.519156038140E-50 0.320152837331E-18 0.263660145582E-40 0.691456796076E-17 0.192887974830E-33 0.356452332880E-17 0.168312071617E-36 0.293506985205E-19 0.324646005372E-22 0.535998743597E-27 0.555752657921E-31 0.115529115169E-17 0.184072566224E-19 0.348708502243E-39 0.256242690644E-18 0.161762607735E-18 0.171005134634E-20 0.111230904542E-20 0.324220003712E-49 0.164471281046E-20 0.166179551911E-23 0.317396350266E-56 0.280265166550E-21 0.447720684913E-23 0.989138673846E-21 0.114512346155E-22 0.735910564172 0.00000000000 0.354930210468E-25 0.472437558327E-21 0.464220379189E-33 0.122828933877E-19 1013253.28297 
 0.146484375000E-02 298.000169857 18.7926302638 0.114396001169E-02 0.454697550933E-07 0.181302910012E-28 0.388232064232E-17 0.195621823086 0.214252883942E-20 0.289300132569E-11 0.771566750640E-15 0.106446128377E-14 0.332245757211E-37 0.190677999020E-53 0.335352061461E-35 0.125721944102E-36 0.302976450292E-16 0.684675891106E-01 0.120316166438E-12 0.128582723581E-14 0.642459253473E-34 0.101130991615E-15 0.130736110146E-36 0.363995617388E-25 0.745366640798E-17 0.508151694012E-49 0.102562454647E-17 0.253419955108E-39 0.222349520496E-16 0.633340709626E-33 0.115305336594E-16 0.136117687002E-35 0.950588641645E-19 0.446927560279E-22 0.522213781171E-27 0.178489012784E-30 0.354888463389E-17 0.568536138830E-19 0.191730012961E-38 0.809965197874E-18 0.516664404081E-18 0.503826185298E-20 0.295247685927E-20 0.142623465096E-48 0.453898302289E-20 0.233189091243E-23 -0.260943112687E-54 0.460827652314E-21 0.631376713413E-23 0.271456454842E-20 0.161596952222E-22 0.735910542331 0.00000000000 0.476414025769E-25 0.102659977496E-20 0.223878525875E-32 0.395135325905E-19 1013253.28343 
 0.244140625000E-02 298.000285547 18.7926198307 0.114395951158E-02 0.754720122838E-07 0.471220967750E-28 0.664148067104E-17 0.195621780289 0.366446533590E-20 0.501916169442E-11 0.134313188968E-14 0.185355515297E-14 0.137128310166E-37 0.491157453426E-53 0.982863341656E-35 0.372958105594E-36 0.525626842909E-16 0.684676239866E-01 0.209460168899E-12 0.226955838684E-14 0.186460408955E-33 0.178632692364E-15 0.394227641199E-36 0.658711654853E-25 0.131789709482E-16 0.152841547234E-48 0.180429161017E-17 0.762254496914E-39 0.392067104461E-16 0.115388966208E-32 0.204286511296E-16 0.399136266379E-35 0.169224547649E-18 0.584949165549E-22 0.508206227906E-27 0.324613988063E-30 0.606602544461E-17 0.983365473028E-19 0.498209285842E-38 0.141024722866E-17 0.906849686127E-18 0.873475091358E-20 0.494703849437E-20 0.325570043982E-48 0.775968086350E-20 0.307826353748E-23 0.140042765646E-53 0.661282556438E-21 0.835268575161E-23 0.463007903264E-20 0.213845436638E-22 0.735910520247 0.00000000000 0.616196020658E-25 0.166460500923E-20 0.570806537682E-32 0.702813504544E-19 1013253.28338 
 0.341796875000E-02 298.000401569 18.7926074192 0.114395900962E-02 0.106065682037E-06 0.922964628203E-28 0.952881913110E-17 0.195621737302 0.525822602452E-20 0.728682039138E-11 0.195573047951E-14 0.269967051803E-14 0.235331441762E-38 0.441676229404E-53 0.204589999264E-34 0.776877029746E-36 0.763081204285E-16 0.684676588107E-01 0.305014320199E-12 0.334550156840E-14 0.389277672990E-33 0.263489697651E-15 0.834328521314E-36 0.100430956700E-24 0.194570743884E-16 0.322341345061E-48 0.265212350248E-17 0.160979406159E-38 0.577426224177E-16 0.177322043576E-32 0.302144906002E-16 0.835263828074E-35 0.251501756686E-18 0.738067649980E-22 0.494025901220E-27 0.502963378736E-30 0.869659444554E-17 0.142648276098E-18 0.975754535216E-38 0.205402772797E-17 0.133029102900E-17 0.127806586510E-19 0.708582840973E-20 0.595298637029E-48 0.112904812592E-19 0.389715103319E-23 -0.138742583356E-53 0.880605762923E-21 0.105835690089E-22 0.672589576530E-20 0.270991087545E-22 0.735910497814 0.00000000000 0.773762884013E-25 0.238413329021E-20 0.113588750001E-31 0.104444065283E-18 1013253.28338 
 0.439453125000E-02 298.000516800 18.7925947142 0.114395851032E-02 0.137217740852E-06 0.155102621283E-27 0.125377928539E-16 0.195621694537 0.692007608761E-20 0.968997134834E-11 0.260772172747E-14 0.360054007033E-14 -0.161248820264E-37 0.112537470360E-52 0.358673995218E-34 0.135951164826E-35 0.101471072489E-15 0.684676932197E-01 0.406722654932E-12 0.451098216276E-14 0.686718567725E-33 0.355493156720E-15 0.148180330743E-35 0.141028035067E-24 0.262727588738E-16 0.570525131718E-48 0.356693827571E-17 0.285368101434E-38 0.777960373848E-16 0.251136106267E-32 0.408651230196E-16 0.147319290614E-34 0.341722981207E-18 0.905972125469E-22 0.479691183979E-27 0.721468945877E-30 0.114347408732E-16 0.189670887935E-18 0.163969133783E-37 0.273958127784E-17 0.178587841381E-17 0.171659944072E-19 0.936311510652E-20 0.966110580048E-48 0.151228034984E-19 0.478658854682E-23 0.574166217556E-53 0.111825384654E-20 0.130009162712E-22 0.899682181043E-20 0.332892501880E-22 0.735910475015 0.00000000000 0.948924920402E-25 0.318433859826E-20 0.195976073690E-31 0.141933368063E-18 1013253.28336 
 0.537109375000E-02 298.000630118 18.7925810263 0.114395801828E-02 0.168893858250E-06 0.236835247971E-27 0.156610841181E-16 0.195621652399 0.864586629176E-20 0.122213470038E-10 0.329706837625E-14 0.455334174402E-14 -0.453456710691E-37 0.603984498835E-53 0.566593099967E-34 0.214219327903E-35 0.127975476837E-15 0.684677268553E-01 0.514267166759E-12 0.576215025269E-14 0.109241737585E-32 0.454339283704E-15 0.236696779305E-35 0.188567903491E-24 0.336035459529E-16 0.908393388695E-48 0.454571962093E-17 0.455058828152E-38 0.993007098308E-16 0.338746146412E-32 0.523455686005E-16 0.234100846492E-34 0.439600046240E-18 0.108812728574E-21 0.465222842405E-27 0.986970587845E-30 0.142739510524E-16 0.239260589210E-18 0.250370885954E-37 0.346475802188E-17 0.227211734782E-17 0.218762758043E-19 0.117717629015E-19 0.145195762147E-47 0.192440054037E-19 0.574365446555E-23 -0.197916239761E-53 0.137344187618E-20 0.155967742660E-22 0.114353564379E-19 0.399345993060E-22 0.735910451839 0.00000000000 0.114118634477E-24 0.406296569797E-20 0.308007056912E-31 0.182630007904E-18 1013253.28334 
 0.634765625000E-02 298.000740415 18.7925667146 0.114395753803E-02 0.201058454214E-06 0.338677819977E-27 0.188906237294E-16 0.195621611288 0.104310429884E-19 0.148724381904E-10 0.402134136910E-14 0.555470504125E-14 0.691333937458E-37 -0.156536362069E-53 0.834082071890E-34 0.314503903650E-35 0.155732295593E-15 0.684677593664E-01 0.627268532852E-12 0.709397315974E-14 0.161934784817E-32 0.559628657687E-15 0.351879530030E-35 0.243890220917E-24 0.414196324702E-16 0.134642529913E-47 0.558461511182E-17 0.675459090510E-38 0.122170701793E-15 0.441931518519E-32 0.646086558044E-16 0.346545683006E-34 0.544721630868E-18 0.128376878577E-21 0.450644031121E-27 0.130535786608E-29 0.172070687391E-16 0.291248081007E-18 0.358032045159E-37 0.422698843812E-17 0.278712922232E-17 0.268924971166E-19 0.143032478841E-19 0.206637781233E-47 0.236373484411E-19 0.676446141959E-23 -0.403727156259E-53 0.164514179894E-20 0.183607205108E-22 0.140316756829E-19 0.470085193129E-22 0.735910428271 0.00000000000 0.134973361274E-24 0.501629563545E-20 0.453215330466E-31 0.226362697924E-18 1013253.28331 
 0.732421875000E-02 298.000846620 18.7925515301 0.114395707394E-02 0.233674811439E-06 0.461693412764E-27 0.222176475564E-16 0.195621571590 0.122706774847E-19 0.176335720717E-10 0.477774308246E-14 0.660074337932E-14 -0.146022538075E-36 0.240091284301E-53 0.116639817838E-33 0.438644146891E-35 0.184640331628E-15 0.684677904152E-01 0.745289745009E-12 0.850028732967E-14 0.227944949619E-32 0.670870335885E-15 0.496399429706E-35 0.307747018786E-24 0.496841966649E-16 0.189426231464E-47 0.667897587103E-17 0.951549273416E-38 0.146301269437E-15 0.562288261414E-32 0.775955016164E-16 0.487114020716E-34 0.656557216540E-18 0.149191058272E-21 0.435980098053E-27 0.168165274142E-29 0.202263439825E-16 0.345440132545E-18 0.488076651754E-37 0.502330803457E-17 0.332867052297E-17 0.321913250731E-19 0.169477397502E-19 0.282119929323E-47 0.282821697257E-19 0.784419620348E-23 0.435069492488E-53 0.193209303561E-20 0.212799708643E-22 0.167737335956E-19 0.544783802324E-22 0.735910404302 0.00000000000 0.157344107162E-24 0.603917111342E-20 0.634839543605E-31 0.272909744445E-18 1013253.28327 
 0.830078125000E-02 298.000947723 18.7925353999 0.114395663017E-02 0.266705192956E-06 0.606809409106E-27 0.256327611235E-16 0.195621533667 0.141595002208E-19 0.204940097183E-10 0.556313728590E-14 0.768709592147E-14 -0.471612820477E-37 0.287173986657E-52 0.156816737718E-33 0.588257456718E-35 0.214587248541E-15 0.684678196840E-01 0.867840795425E-12 0.997387731717E-14 0.308323703395E-32 0.787488187498E-15 0.672609817732E-35 0.380781372559E-24 0.583538775406E-16 0.256039739368E-47 0.782341431182E-17 0.128771791161E-37 0.171570192645E-15 0.701182101088E-32 0.912362905785E-16 0.657972360904E-34 0.774464366818E-18 0.171135847317E-21 0.421258358905E-27 0.212005134650E-29 0.233234886531E-16 0.401621568834E-18 0.641485277225E-37 0.585038932357E-17 0.389415998148E-17 0.377453992416E-19 0.196942076591E-19 0.372784579722E-47 0.331541506369E-19 0.897718269335E-23 0.947272444202E-53 0.223281867149E-20 0.243395439091E-22 0.196474169597E-19 0.623059774368E-22 0.735910379923 0.00000000000 0.181088671915E-24 0.712506864020E-20 0.855727710467E-31 0.322002097298E-18 1013253.28324 
 0.927734375000E-02 298.001042788 18.7925182281 0.114395621056E-02 0.300110964389E-06 0.774802777485E-27 0.291260113811E-16 0.195621497851 0.160919392149E-19 0.234420615091E-10 0.637408523867E-14 0.880897806241E-14 0.170867578512E-36 0.302265091259E-52 0.204323999649E-33 0.764693236131E-35 0.245450776689E-15 0.684678468810E-01 0.994384324655E-12 0.115065800244E-13 0.403942652688E-32 0.908829299415E-15 0.882460551455E-35 0.463507442930E-24 0.673794161609E-16 0.335188224455E-47 0.901187864196E-17 0.168760627918E-37 0.197839516803E-15 0.859704390780E-32 0.105451333929E-15 0.860918783951E-34 0.897699161452E-18 0.194072949741E-21 0.406507844992E-27 0.262393908981E-29 0.264897379017E-16 0.459557634878E-18 0.819079449142E-37 0.670458044015E-17 0.448071306584E-17 0.435237299497E-19 0.225305480151E-19 0.479508762455E-47 0.382256756949E-19 0.101569662675E-22 0.670257598743E-53 0.254564686365E-20 0.275224783187E-22 0.226367498578E-19 0.704480839700E-22 0.735910355132 0.00000000000 0.206037771537E-24 0.826621583711E-20 0.111823926759E-30 0.373327747053E-18 1013253.28323 
 0.102539062500E-01 298.001130973 18.7925001007 0.114395581854E-02 0.333852720253E-06 0.966287089521E-27 0.326869647746E-16 0.195621464441 0.180621622480E-19 0.264652183628E-10 0.720688725436E-14 0.996123962811E-14 0.179441716763E-36 0.295467971031E-52 0.259456140855E-33 0.968991578384E-35 0.277100084430E-15 0.684678717461E-01 0.112434212698E-11 0.130894117773E-13 0.515459874849E-32 0.103417425704E-14 0.112742086180E-34 0.556292783337E-24 0.767064436666E-16 0.427406469669E-47 0.102377424746E-16 0.215396891970E-37 0.224957666933E-15 0.103863319264E-31 0.120152383119E-15 0.109731595124E-33 0.102542951484E-17 0.217847670871E-21 0.391759027895E-27 0.319589000134E-29 0.297159168207E-16 0.518996694627E-18 0.102150791515E-36 0.758194968316E-17 0.508518306824E-17 0.494921844584E-19 0.254437317913E-19 0.602936588176E-47 0.434662732065E-19 0.113764177196E-22 0.123332827650E-52 0.286873696684E-20 0.308100981539E-22 0.257241433273E-19 0.788571238622E-22 0.735910329933 0.00000000000 0.231998493128E-24 0.945375060578E-20 0.142415541191E-30 0.426537354759E-18 1013253.28323 
 0.112304687500E-01 298.001211544 18.7924812490 0.114395545713E-02 0.367890413611E-06 0.118170166199E-26 0.363047906260E-16 0.195621433689 0.200641222052E-19 0.295502964275E-10 0.805762892387E-14 0.111384296487E-13 0.117809393093E-36 0.106618390380E-52 0.322406277938E-33 0.120184822435E-34 0.309397289810E-15 0.684678940548E-01 0.125710238625E-11 0.147127150413E-13 0.643291586284E-32 0.116274903855E-14 0.140841455977E-34 0.659343740246E-24 0.862763956319E-16 0.533036745797E-47 0.114939074029E-16 0.268855627311E-37 0.252761881819E-15 0.123840152094E-31 0.135244162695E-15 0.136803467920E-33 0.115675099294E-17 0.242291858992E-21 0.377043524853E-27 0.383765865214E-29 0.329925114885E-16 0.579673214678E-18 0.124923515475E-36 0.847833510337E-17 0.570420784561E-17 0.556140490593E-19 0.284199685057E-19 0.743477474407E-47 0.488431263131E-19 0.126278539618E-22 0.676776283065E-53 0.320010971789E-20 0.341823193863E-22 0.288906837999E-19 0.874819495027E-22 0.735910304335 0.00000000000 0.258758539337E-24 0.106779168791E-19 0.177460329000E-30 0.481250949791E-18 1013253.28323 
 0.122070312500E-01 298.001283890 18.7924618703 0.114395512883E-02 0.402183488434E-06 0.142130306468E-26 0.399683487589E-16 0.195621405805 0.220916049480E-19 0.326835925344E-10 0.892223106713E-14 0.123348663933E-13 0.169251078814E-36 0.157102449861E-52 0.393257631182E-33 0.146358704819E-34 0.342199084606E-15 0.684679136223E-01 0.139202749648E-11 0.163663209093E-13 0.787590475064E-32 0.129373820510E-14 0.172577064957E-34 0.772694661053E-24 0.960275279215E-16 0.652211804286E-47 0.127729159762E-16 0.329202474825E-37 0.281080905027E-15 0.145907447186E-31 0.150626079512E-15 0.167341057753E-33 0.129070464205E-17 0.267227221223E-21 0.362393789142E-27 0.455017098440E-29 0.363097435163E-16 0.641310975821E-18 0.150253239461E-36 0.938939813200E-17 0.633426109339E-17 0.618506521482E-19 0.314448835278E-19 0.901290136765E-47 0.543216405960E-19 0.139031722190E-22 0.861272927960E-53 0.353768067970E-20 0.376179895335E-22 0.321164526871E-19 0.962687025780E-22 0.735910278355 0.00000000000 0.286091110856E-24 0.119282899380E-19 0.216999789611E-30 0.537065487912E-18 1013253.28323 
 0.131835937500E-01 298.001347528 18.7924420697 0.114395483563E-02 0.436691013953E-06 0.168515917352E-26 0.436662802296E-16 0.195621380947 0.241382790588E-19 0.358510474767E-10 0.979650239045E-14 0.135447112219E-13 0.136842793258E-36 0.193875250888E-52 0.471977850702E-33 0.175414108567E-34 0.375358440017E-15 0.684679303058E-01 0.152846230662E-11 0.180397229608E-13 0.948231736231E-32 0.142629902497E-14 0.207919175976E-34 0.896201476004E-24 0.105896005678E-15 0.784843764209E-47 0.140670721863E-16 0.396387847998E-37 0.309737861227E-15 0.170033657281E-31 0.166194058884E-15 0.201321573000E-33 0.142629626253E-17 0.292468908208E-21 0.347842790006E-27 0.533351880868E-29 0.396576471602E-16 0.703626450094E-18 0.178147131764E-36 0.103106801400E-16 0.697170689529E-17 0.681620312546E-19 0.345037050555E-19 0.107622588357E-46 0.598660524350E-19 0.151939939432E-22 0.922892008080E-53 0.387929603493E-20 0.410952511700E-22 0.353808684209E-19 0.105161735271E-21 0.735910252019 0.00000000000 0.313760245460E-24 0.131940228800E-19 0.261000451583E-30 0.593563027055E-18 1013253.28323 
 0.141601562500E-01 298.001402113 18.7924221099 0.114395457898E-02 0.471371820305E-06 0.197314589460E-26 0.473870999813E-16 0.195621359223 0.261977467771E-19 0.390384139969E-10 0.106761937607E-13 0.147620447174E-13 -0.395901210731E-38 0.419212199536E-53 0.558416389328E-33 0.207304283080E-34 0.408726361511E-15 0.684679440064E-01 0.166574261894E-11 0.197222577245E-13 0.112480751053E-31 0.155957613949E-14 0.246774201606E-34 0.102954004243E-23 0.115817034627E-15 0.930619426028E-47 0.153685663421E-16 0.470244565560E-37 0.338553240340E-15 0.196149021666E-31 0.181842453907E-15 0.238664677325E-33 0.156251650547E-17 0.317829251897E-21 0.333423686851E-27 0.618696144527E-29 0.430261480235E-16 0.766332277217E-18 0.208592059867E-36 0.112376607476E-16 0.761285619648E-17 0.745076255736E-19 0.375814568669E-19 0.126782117273E-46 0.654400609568E-19 0.164918143498E-22 -0.782388961172E-54 0.422276974380E-20 0.445919193000E-22 0.386630415284E-19 0.114104566473E-21 0.735910225358 0.00000000000 0.341526411399E-24 0.144641048642E-19 0.309352359869E-30 0.650319254456E-18 1013253.28323 
 0.151367187500E-01 298.001447436 18.7924021802 0.114395435974E-02 0.506184634763E-06 0.228494662857E-26 0.511192902135E-16 0.195621340688 0.282635954335E-19 0.422314262770E-10 0.115570529736E-13 0.159809435119E-13 -0.123329692605E-36 0.220103345207E-53 0.652305046926E-33 0.241942420583E-34 0.442153659356E-15 0.684679546697E-01 0.180320376472E-11 0.214032867916E-13 0.131663005279E-31 0.169271636255E-14 0.288985509458E-34 0.117220944099E-23 0.125726002653E-15 0.108900227048E-46 0.166696010958E-16 0.550489077515E-37 0.367347909060E-15 0.224146552827E-31 0.197465971927E-15 0.279233002972E-33 0.169836114229E-17 0.343121535546E-21 0.319169502548E-27 0.710893692607E-29 0.464051423573E-16 0.829140772344E-18 0.241554534078E-36 0.121658166656E-16 0.825402379886E-17 0.808469748159E-19 0.406631528306E-19 0.147535629806E-46 0.710074657231E-19 0.177881533131E-22 -0.288127958383E-53 0.456592104127E-20 0.480858621890E-22 0.419421329493E-19 0.123040846759E-21 0.735910198414 0.00000000000 0.369152142810E-24 0.157276212837E-19 0.361869893985E-30 0.706912086758E-18 1013253.28324 
 0.161132812500E-01 298.001483428 18.7923822455 0.114395417824E-02 0.541088217828E-06 0.262005448818E-26 0.548513932537E-16 0.195621325348 0.303294486900E-19 0.454159677184E-10 0.124348788919E-13 0.171955562178E-13 0.889353061838E-37 0.369033558922E-53 0.753261684357E-33 0.279202627082E-34 0.475492701324E-15 0.684679622854E-01 0.194018908101E-11 0.230723756216E-13 0.152274356404E-31 0.182488320583E-14 0.334336226518E-34 0.132354020487E-23 0.135559599586E-15 0.125924111240E-46 0.179625153789E-16 0.636726261174E-37 0.395946069222E-15 0.253884147461E-31 0.212961562187E-15 0.322834361603E-33 0.183285085838E-17 0.368163675259E-21 0.305112800647E-27 0.809708427831E-29 0.497845759609E-16 0.891767396873E-18 0.276980942542E-36 0.130906798481E-16 0.889158447529E-17 0.871404051898E-19 0.437339891481E-19 0.169783360065E-46 0.765327923077E-19 0.190747033563E-22 0.390034319272E-53 0.490661124857E-20 0.515553752431E-22 0.451977058021E-19 0.131915305889E-21 0.735910171231 0.00000000000 0.396407505704E-24 0.169740060588E-19 0.418294901261E-30 0.762930065243E-18 1013253.28323 
 0.170898437500E-01 298.001510148 18.7923625533 0.114395403426E-02 0.576041498479E-06 0.297777722378E-26 0.585721027374E-16 0.195621313156 0.323890169068E-19 0.485782338715E-10 0.133055738566E-13 0.184001769174E-13 -0.580957760245E-38 0.849110430482E-53 0.860796979430E-33 0.318921839828E-34 0.508599114779E-15 0.684679668846E-01 0.207605811644E-11 0.247194642690E-13 0.174194423331E-31 0.195527073685E-14 0.382553931782E-34 0.148270725534E-23 0.145256884393E-15 0.144038509183E-46 0.192399031198E-16 0.728457605422E-37 0.424178085441E-15 0.285187750493E-31 0.228230210902E-15 0.369225571813E-33 0.196504995141E-17 0.392781697837E-21 0.291285371210E-27 0.914827764554E-29 0.531545216996E-16 0.953934125730E-18 0.314798072757E-36 0.140078937684E-16 0.952202684526E-17 0.933496840428E-19 0.467795304072E-19 0.193393338830E-46 0.819818885925E-19 0.203434706390E-22 0.528086113555E-53 0.524277891242E-20 0.549795379132E-22 0.484100611689E-19 0.140674657539E-21 0.735910143867 0.00000000000 0.423075194788E-24 0.181932767923E-19 0.478302026831E-30 0.817980281041E-18 1013253.28323 
 0.180664062500E-01 298.001527813 18.7923431990 0.114395392695E-02 0.611003707888E-06 0.335724475870E-26 0.622703519471E-16 0.195621304013 0.344361459805E-19 0.517048875416E-10 0.141651933374E-13 0.195893147501E-13 -0.797640269710E-37 -0.614246141148E-54 0.974323978707E-33 0.360902631245E-34 0.541333407136E-15 0.684679685490E-01 0.221019440392E-11 0.263350256207E-13 0.197280767626E-31 0.208311640759E-14 0.433317041989E-34 0.164874712169E-23 0.154760271359E-15 0.163130442365E-46 0.204947238375E-16 0.825092454800E-37 0.451883110192E-15 0.317855452773E-31 0.243178594421E-15 0.418117754442E-33 0.209408337120E-17 0.416812910248E-21 0.277717929831E-27 0.102586723446E-28 0.565052546922E-16 0.101537264807E-17 0.354913909775E-36 0.149132666965E-16 0.101420037472E-16 0.994386261103E-19 0.497858857487E-19 0.218216457434E-46 0.873224759633E-19 0.215869051678E-22 -0.268157390370E-53 0.557247236019E-20 0.583385443688E-22 0.515605491874E-19 0.149268437904E-21 0.735910116381 0.00000000000 0.448955083243E-24 0.193762445436E-19 0.541506026834E-30 0.871695589609E-18 1013253.28321 
 0.190429687500E-01 298.001536652 18.7923243047 0.114395385545E-02 0.645934510873E-06 0.375741916593E-26 0.659353982017E-16 0.195621297837 0.364648640276E-19 0.547832033048E-10 0.150099918707E-13 0.207577582550E-13 -0.235979711293E-37 0.490731622669E-54 0.109317009315E-32 0.404916808905E-34 0.573562475821E-15 0.684679673587E-01 0.234201265105E-11 0.279102072308E-13 0.221372263784E-31 0.220771253266E-14 0.486262619721E-34 0.182057884975E-23 0.164016410223E-15 0.183071605566E-46 0.217204025110E-16 0.925961851944E-37 0.478911442456E-15 0.351662361907E-31 0.257720547171E-15 0.469182885536E-33 0.221915161586E-17 0.440108670392E-21 0.264439833966E-27 0.114237623927E-28 0.598273242556E-16 0.107582734302E-17 0.397218690209E-36 0.158028209474E-16 0.107483779688E-16 0.105373636266E-18 0.527398717456E-19 0.244084912704E-46 0.925246414323E-19 0.227980169023E-22 0.638450908031E-54 0.589387886334E-20 0.616139997318E-22 0.546318477321E-19 0.157649757458E-21 0.735910088813 0.00000000000 0.473868077306E-24 0.205146913679E-19 0.607470767639E-30 0.923740907315E-18 1013253.28320 
 0.200195312500E-01 298.001537254 18.7923052426 0.114395381737E-02 0.680794134503E-06 0.417710694433E-26 0.695569023008E-16 0.195621294369 0.384694253511E-19 0.578011990055E-10 0.158364644554E-13 0.219006332998E-13 -0.319165126605E-38 0.194925950970E-53 0.121659110231E-32 0.450709696976E-34 0.605160982362E-15 0.684679635302E-01 0.247096521807E-11 0.294369535105E-13 0.246292960214E-31 0.232841615187E-14 0.540995284206E-34 0.199702786234E-23 0.172976939599E-15 0.203721332959E-46 0.229109165436E-16 0.103033443182E-36 0.505126566762E-15 0.386366054403E-31 0.271778309032E-15 0.522061353671E-33 0.233954309821E-17 0.462536687440E-21 0.251478820588E-27 0.126384485678E-28 0.631116217780E-16 0.113505797925E-17 0.441586207389E-36 0.166728372034E-16 0.113382623714E-16 0.111124176270E-18 0.556291590314E-19 0.270811285274E-46 0.975612591761E-19 0.239704750224E-22 0.118150108365E-53 0.620534973939E-20 0.647891750742E-22 0.576082022842E-19 0.165775948661E-21 0.735910061247 0.00000000000 0.497659164569E-24 0.216015104865E-19 0.675719549999E-30 0.973818425961E-18 1013253.28318 
 0.209960937500E-01 298.001530017 18.7922867588 0.114395381119E-02 0.715543493082E-06 0.461497320339E-26 0.731250020754E-16 0.195621293502 0.404443511406E-19 0.607477521128E-10 0.166413826969E-13 0.230134535985E-13 0.737264326915E-39 0.716277279830E-55 0.134378666032E-32 0.498004960509E-34 0.636012568474E-15 0.684679571506E-01 0.259654777231E-11 0.309081057433E-13 0.271856272431E-31 0.244465707150E-14 0.597096845802E-34 0.217685192942E-23 0.181599097852E-15 0.224929827340E-46 0.240608680825E-16 0.113743370778E-36 0.530406830845E-15 0.421712396116E-31 0.285283525375E-15 0.576370221275E-33 0.245464370543E-17 0.483982800151E-21 0.238860768440E-27 0.138971156724E-28 0.663494437384E-16 0.119284209387E-17 0.487875303466E-36 0.175198931463E-16 0.119090536280E-16 0.116663145812E-18 0.584424001545E-19 0.298199844878E-46 0.102408332626E-18 0.250986882563E-22 0.560585449601E-55 0.650542087204E-20 0.678492158893E-22 0.604756220188E-19 0.173609096245E-21 0.735910033741 0.00000000000 0.520199584975E-24 0.226308058246E-19 0.745746345615E-30 0.102167162792E-17 1013253.28319 
 0.219726562500E-01 298.001515345 18.7922684998 0.114395383522E-02 0.750144309082E-06 0.506955765973E-26 0.766303792581E-16 0.195621294973 0.423844664836E-19 0.636126992538E-10 0.174218251495E-13 0.240921630456E-13 -0.138648748795E-37 -0.330845366256E-54 0.147391677053E-32 0.546509824339E-34 0.666010896555E-15 0.684679484500E-01 0.271830403298E-11 0.323174782182E-13 0.297869349819E-31 0.255594394692E-14 0.654136297438E-34 0.235876834398E-23 0.189846180940E-15 0.246541556701E-46 0.251655404731E-16 0.124645611548E-36 0.554646733402E-15 0.457441509312E-31 0.298177982661E-15 0.631711889817E-33 0.256394339267E-17 0.504352203569E-21 0.226609487945E-27 0.151937173694E-28 0.695325492110E-16 0.124897701590E-17 0.535931564108E-36 0.183408958063E-16 0.124584590136E-16 0.121967171329E-18 0.611693367014E-19 0.326047887184E-46 0.107045251256E-18 0.261778648971E-22 0.191556561922E-54 0.679282829861E-20 0.707813004729E-22 0.632220287544E-19 0.181116440984E-21 0.735910006367 0.00000000000 0.541388095552E-24 0.235979496045E-19 0.817027518017E-30 0.106708803539E-17 1013253.28318 
 0.229492187500E-01 298.001494180 18.7922504080 0.114395388576E-02 0.784559229187E-06 0.553929210606E-26 0.800643189544E-16 0.195621298540 0.442849332767E-19 0.663869176363E-10 0.181752014594E-13 0.251331693118E-13 -0.338398452578E-37 -0.207107419144E-53 0.160611866886E-32 0.595920527170E-34 0.695060501148E-15 0.684679376467E-01 0.283582954396E-11 0.336599096049E-13 0.324137451317E-31 0.266186833772E-14 0.711679778707E-34 0.254148138060E-23 0.197687842244E-15 0.268398693802E-46 0.262209381529E-16 0.135658913845E-36 0.577757806680E-15 0.493293667141E-31 0.310414072218E-15 0.687682852077E-33 0.266703977050E-17 0.523570116618E-21 0.214746541060E-27 0.165218667265E-28 0.726532112532E-16 0.130328150766E-17 0.585589179610E-36 0.191331072034E-16 0.129845159067E-16 0.127016799325E-18 0.638008842817E-19 0.354151061904E-46 0.111454959251E-18 0.272040518592E-22 -0.385686988845E-54 0.706651868680E-20 0.735747464068E-22 0.658373570667E-19 0.188270652340E-21 0.735909979185 0.00000000000 0.561151341232E-24 0.244995986012E-19 0.889033591548E-30 0.110990067849E-17 1013253.28319 
 0.239257812500E-01 298.001467084 18.7922329554 0.114395396052E-02 0.818751935174E-06 0.602251876677E-26 0.834187611763E-16 0.195621303945 0.461412787033E-19 0.690623875514E-10 0.188992700770E-13 0.261333683806E-13 -0.347212937908E-37 -0.613636023705E-53 0.173952357833E-32 0.645927846697E-34 0.723077442894E-15 0.684679249738E-01 0.294877443874E-11 0.349312895174E-13 0.350468169509E-31 0.276210673529E-14 0.769300131439E-34 0.272370913891E-23 0.205100234804E-15 0.290344438588E-46 0.272238098159E-16 0.146702883100E-36 0.599669092040E-15 0.529014909855E-31 0.321954984359E-15 0.743882217674E-33 0.276363875885E-17 0.541581904111E-21 0.203291092962E-27 0.178749304811E-28 0.757042617183E-16 0.135559700819E-17 0.636672866935E-36 0.198941630403E-16 0.134856038857E-16 0.131796594114E-18 0.663291945723E-19 0.382307591867E-46 0.115624036241E-18 0.281741528511E-22 -0.470584103187E-54 0.732565469284E-20 0.762210650622E-22 0.683136054896E-19 0.195049969658E-21 0.735909952257 0.00000000000 0.579443381567E-24 0.253336714062E-19 0.961240649918E-30 0.114998831525E-17 1013253.28320 
 0.249023437500E-01 298.001434799 18.7922161464 0.114395405652E-02 0.852687248894E-06 0.651750959119E-26 0.866863439974E-16 0.195621310925 0.479494190742E-19 0.716322355718E-10 0.195921494712E-13 0.270901599400E-13 0.563434496811E-37 -0.628489070107E-54 0.187327282809E-32 0.696222544969E-34 0.749989760953E-15 0.684679106734E-01 0.305684518696E-11 0.361285609990E-13 0.376675371068E-31 0.285642062690E-14 0.826585758318E-34 0.290420893579E-23 0.212066001430E-15 0.312226177453E-46 0.281716551866E-16 0.157699622844E-36 0.620327219258E-15 0.564362200559E-31 0.332774643904E-15 0.799919753905E-33 0.285355248382E-17 0.558352685967E-21 0.192259796712E-27 0.192461249502E-28 0.786791291131E-16 0.140578847158E-17 0.688999922704E-36 0.206220843791E-16 0.139604495203E-16 0.136295142948E-18 0.687476941957E-19 0.410323096335E-46 0.119542693131E-18 0.290859264130E-22 -0.669214299375E-54 0.756961535635E-20 0.787139656982E-22 0.706448402868E-19 0.201438215807E-21 0.735909925639 0.00000000000 0.596244455829E-24 0.260992905562E-19 0.103314099500E-29 0.118727448113E-17 1013253.28321 
 0.258789062500E-01 298.001398070 18.7922001003 0.114395417078E-02 0.886331231044E-06 0.702248585862E-26 0.898604380536E-16 0.195621319213 0.497056788477E-19 0.740907585220E-10 0.202523229349E-13 0.280014537625E-13 -0.482030271356E-37 -0.434912565546E-53 0.200653288585E-32 0.746500584352E-34 0.775737724649E-15 0.684678949922E-01 0.315980533689E-11 0.372497003705E-13 0.402582728091E-31 0.294465471924E-14 0.883148489521E-34 0.308180050926E-23 0.218574122782E-15 0.333898338943E-46 0.290627162098E-16 0.168575209737E-36 0.639696111940E-15 0.599107968784E-31 0.342857406134E-15 0.855423187872E-33 0.293669468266E-17 0.573866482965E-21 0.181666711542E-27 0.206286115355E-28 0.815718692546E-16 0.145374480331E-17 0.742382293028E-36 0.213152824099E-16 0.144081241614E-16 0.140504974241E-18 0.710511007788E-19 0.438011222647E-46 0.123204688581E-18 0.299379651808E-22 0.828565079636E-55 0.779799183310E-20 0.810493122141E-22 0.728271546746E-19 0.207424690869E-21 0.735909899386 0.00000000000 0.611559094890E-24 0.267966945825E-19 0.110425274000E-29 0.122172548321E-17 1013253.28322 